LAMMPS (7 Feb 2024 - Development - patch_7Feb2024_update1-343-g99e82f9f07)
OMP_NUM_THREADS environment is not set. Defaulting to 1 thread. (src/comm.cpp:98)
  using 1 OpenMP thread(s) per MPI task
## Example 4:	move an intruder in a 2D granular material
#  New tricks:  use grains as a boundary, 2D simulation, use group to control particles separately
#  Commands that appears in previous examples will not be repeatedly explained.
#  More command details in the documentation https://lammps.sandia.gov/doc/Commands.html
#  LAMMPS version: LAMMPS (7 Aug 2019) on linux

# 2D
dimension	2

#style = amoeba or angle or atomic or body or bond or charge or dielectric or dipole or dpd or edpd or electron or ellipsoid or full or line or mdpd or molecular or oxdna or peri or smd or sph or sphere or bpm/sphere or spin or tdpd or tri or template or wavepacket or hybrid
atom_style	sphere

# Fronteira x y z -> p = todas periódicas
boundary	p p p

# 3a. Lei de Newton para iterações emparelhadas
newton		on

#vel value = yes or no = do or do not communicate velocity info with ghost atoms
comm_modify	vel yes

# Região    ID  Bloco xlo,xhi,ylo,yhi,zlo,zhi = bounds of block in all dimensions (distance units)
#                                              units value = lattice or box
#region		reg block -5  5   -5  5   -0.5 0.5 units box
region		reg block -8  8   -8  8   -0.5 0.5 units box
# Define a simulação com dois tipos de partículas
#This command creates a simulation box based on the specified region. Thus a region command must first be used to define a geometric domain. It also partitions the simulation box into a regular 3d grid of rectangular bricks, one per processor, based on the number of processors being used and the settings of the processors command. The partitioning can later be changed by the balance or fix balance commands.
#           Tipo de dados - The argument N is the number of atom types that will be used in the simulation.
create_box	2 reg
Created orthogonal box = (-8 -8 -0.5) to (8 8 0.5)
  5 by 4 by 1 MPI processor grid

# Lê as posições de cada grão do arquivo "data"
# merge = add new atoms with their atom IDs (and molecule IDs) unchanged
read_data	data add merge
Reading data file ...
  orthogonal box = (-8 -8 -0.5) to (8 8 0.5)
  5 by 4 by 1 MPI processor grid
  reading atoms ...
  76 atoms
  read_data CPU = 0.001 seconds

# Identifica os intrusos no arquivo "data"
group		intruder1 id == 32
1 atoms in group intruder1
group		intruder2 id == 76
1 atoms in group intruder2

# Agrupa grãos tipo <= 1 (Intrusos são tipo 2)
group		packing type <= 1
74 atoms in group packing

# Aplica aos grãos a operação nve/sphere: Perform constant NVE integration to update position, velocity, and angular velocity for finite-size spherical particles in the group each timestep. V is volume; E is energy. This creates a system trajectory consistent with the microcanonical ensemble.
fix		1 packing nve/sphere
fix		11 intruder1 nve/sphere
fix		12 intruder2 nve/sphere

# Define as fronteiras de emparelhamenos: 0,2 unidades e aplica estilo bin: The bin style creates the list by binning which is an operation that scales linearly with N/P, the number of atoms per processor where N = total number of atoms and P = number of processors. It is almost always faster than the nsq style which scales as (N/P)^2. For unsolvated small molecules in a non-periodic box, the nsq choice can sometimes be faster. Either style should give the same answers.
neighbor	0.2 bin

# This command sets parameters that affect the building and use of pairwise neighbor lists. Depending on what pair interactions and other commands are defined, a simulation may require one or more neighbor lists. The every, delay, check, and once options affect how often lists are built as a simulation runs. The delay setting means never build new lists until at least N steps after the previous build. The every setting means attempt to build lists every M steps (after the delay has passed). If the check setting is no, the lists are built on the first step that satisfies the delay and every settings. If the check setting is yes, then the every and delay settings determine when a build may possibly be performed, but an actual build only occurs if at least one atom has moved more than half the neighbor skin distance (specified in the neighbor command) since the last neighbor list build.
neigh_modify	delay 0

# Set the formula(s) LAMMPS uses to compute pairwise interactions.
# gran/hooke/history - granular potential without history effects
pair_style      gran/hooke/history 400.0 NULL 10.0 NULL 0.75 1

# Specify the pairwise force field coefficients for one or more pairs of atom types. The number and meaning of the coefficients depends on the pair style. Pair coefficients can also be set in the data file read by the read_data command or in a restart file.
pair_coeff	* *

# Set the timestep size for subsequent molecular dynamics simulations.
timestep	0.001

# Explicita que é uma simulação 2D
fix             2 all enforce2d

# Define a diagnostic computation that will be performed on a group of atoms
# ke = Define a computation that calculates the translational kinetic energy of a group of particles.
compute		ke all ke

# The compute erotate/sphere command in LAMMPS calculates the rotational kinetic energy of each particle in a group.
compute		re all erotate/sphere

# Set the style and content for printing thermodynamic data to the screen and log files.
#thermo_style	custom step atoms c_ke c_re
thermo_style	multi

# Compute and print thermodynamic info (e.g. temperature, energy, pressure) on timesteps that are a multiple of N and at the beginning and end of a simulation. A value of 0 will only print thermodynamics at the beginning and end.
thermo		100
# Set options for how thermodynamic information is computed and printed by LAMMPS.
# The lost keyword determines whether LAMMPS checks for lost atoms each time it computes thermodynamics and what it does if atoms are lost. An atom can be “lost” if it moves across a non-periodic simulation box boundary or if it moves more than a box length outside the simulation domain (or more than a processor subdomain length) before reneighboring occurs. The latter case is typically due to bad dynamics (e.g., too large a time step and/or huge forces and velocities). If the value is ignore, LAMMPS does not check for lost atoms. If the value is error or warn, LAMMPS checks and either issues an error or warning. The simulation will exit with an error and continue with a warning. A warning will only be issued once, the first time an atom is lost. This can be a useful debugging option.
thermo_modify	lost warn norm no

# Gera imagens
#dump		2 all image 100 *.jpg type diameter zoom 1.6 view 0 0
dump m0 all movie 1000 movie.mpg type type size 640 480
#dump_modify	2 pad 5

# Primeira execução para acomodar os grãos
run 15000
Generated 0 of 1 mixed pair_coeff terms from geometric mixing rule
Neighbor list info ...
  update: every = 1 steps, delay = 0 steps, check = yes
  max neighbors/atom: 2000, page size: 100000
  master list distance cutoff = 3.2
  ghost atom cutoff = 3.2
  binsize = 1.6, bins = 10 10 1
  1 neighbor lists, perpetual/occasional/extra = 1 0 0
  (1) pair gran/hooke/history, perpetual
      attributes: half, newton on, size, history
      pair build: half/size/bin/atomonly/newton
      stencil: half/bin/2d
      bin: standard
Per MPI rank memory allocation (min/avg/max) = 9.583 | 9.789 | 9.959 Mbytes
------------ Step              0 ----- CPU =            0 (sec) -------------
TotEng   =         0.0000 KinEng   =         0.0000 Temp     =         0.0000 
PotEng   =         0.0000 E_bond   =         0.0000 E_angle  =         0.0000 
E_dihed  =         0.0000 E_impro  =         0.0000 E_vdwl   =         0.0000 
E_coul   =         0.0000 E_long   =         0.0000 Press    =        20.1844
------------ Step            100 ----- CPU =  0.001819111 (sec) -------------
TotEng   =      1499.8224 KinEng   =      1499.8224 Temp     =        19.9976 
PotEng   =         0.0000 E_bond   =         0.0000 E_angle  =         0.0000 
E_dihed  =         0.0000 E_impro  =         0.0000 E_vdwl   =         0.0000 
E_coul   =         0.0000 E_long   =         0.0000 Press    =        12.1882
------------ Step            200 ----- CPU =  0.003675772 (sec) -------------
TotEng   =      1147.2735 KinEng   =      1147.2735 Temp     =        15.2970 
PotEng   =         0.0000 E_bond   =         0.0000 E_angle  =         0.0000 
E_dihed  =         0.0000 E_impro  =         0.0000 E_vdwl   =         0.0000 
E_coul   =         0.0000 E_long   =         0.0000 Press    =         7.8000
------------ Step            300 ----- CPU =  0.005445789 (sec) -------------
TotEng   =      1128.4684 KinEng   =      1128.4684 Temp     =        15.0462 
PotEng   =         0.0000 E_bond   =         0.0000 E_angle  =         0.0000 
E_dihed  =         0.0000 E_impro  =         0.0000 E_vdwl   =         0.0000 
E_coul   =         0.0000 E_long   =         0.0000 Press    =         5.5423
------------ Step            400 ----- CPU =  0.007047371 (sec) -------------
TotEng   =      1042.9078 KinEng   =      1042.9078 Temp     =        13.9054 
PotEng   =         0.0000 E_bond   =         0.0000 E_angle  =         0.0000 
E_dihed  =         0.0000 E_impro  =         0.0000 E_vdwl   =         0.0000 
E_coul   =         0.0000 E_long   =         0.0000 Press    =         5.0452
------------ Step            500 ----- CPU =  0.008539007 (sec) -------------
TotEng   =       814.0990 KinEng   =       814.0990 Temp     =        10.8547 
PotEng   =         0.0000 E_bond   =         0.0000 E_angle  =         0.0000 
E_dihed  =         0.0000 E_impro  =         0.0000 E_vdwl   =         0.0000 
E_coul   =         0.0000 E_long   =         0.0000 Press    =         4.3072
------------ Step            600 ----- CPU =  0.009984179 (sec) -------------
TotEng   =       717.5345 KinEng   =       717.5345 Temp     =         9.5671 
PotEng   =         0.0000 E_bond   =         0.0000 E_angle  =         0.0000 
E_dihed  =         0.0000 E_impro  =         0.0000 E_vdwl   =         0.0000 
E_coul   =         0.0000 E_long   =         0.0000 Press    =         3.4960
------------ Step            700 ----- CPU =   0.01132973 (sec) -------------
TotEng   =       598.5144 KinEng   =       598.5144 Temp     =         7.9802 
PotEng   =         0.0000 E_bond   =         0.0000 E_angle  =         0.0000 
E_dihed  =         0.0000 E_impro  =         0.0000 E_vdwl   =         0.0000 
E_coul   =         0.0000 E_long   =         0.0000 Press    =         3.1362
------------ Step            800 ----- CPU =   0.01404794 (sec) -------------
TotEng   =       497.9844 KinEng   =       497.9844 Temp     =         6.6398 
PotEng   =         0.0000 E_bond   =         0.0000 E_angle  =         0.0000 
E_dihed  =         0.0000 E_impro  =         0.0000 E_vdwl   =         0.0000 
E_coul   =         0.0000 E_long   =         0.0000 Press    =         3.0617
------------ Step            900 ----- CPU =   0.01532554 (sec) -------------
TotEng   =       416.1146 KinEng   =       416.1146 Temp     =         5.5482 
PotEng   =         0.0000 E_bond   =         0.0000 E_angle  =         0.0000 
E_dihed  =         0.0000 E_impro  =         0.0000 E_vdwl   =         0.0000 
E_coul   =         0.0000 E_long   =         0.0000 Press    =         2.4529
------------ Step           1000 ----- CPU =   0.01655316 (sec) -------------
TotEng   =       335.6690 KinEng   =       335.6690 Temp     =         4.4756 
PotEng   =         0.0000 E_bond   =         0.0000 E_angle  =         0.0000 
E_dihed  =         0.0000 E_impro  =         0.0000 E_vdwl   =         0.0000 
E_coul   =         0.0000 E_long   =         0.0000 Press    =         2.7641
------------ Step           1100 ----- CPU =   0.03656884 (sec) -------------
TotEng   =       272.4515 KinEng   =       272.4515 Temp     =         3.6327 
PotEng   =         0.0000 E_bond   =         0.0000 E_angle  =         0.0000 
E_dihed  =         0.0000 E_impro  =         0.0000 E_vdwl   =         0.0000 
E_coul   =         0.0000 E_long   =         0.0000 Press    =         2.1413
------------ Step           1200 ----- CPU =   0.03883451 (sec) -------------
TotEng   =       231.1060 KinEng   =       231.1060 Temp     =         3.0814 
PotEng   =         0.0000 E_bond   =         0.0000 E_angle  =         0.0000 
E_dihed  =         0.0000 E_impro  =         0.0000 E_vdwl   =         0.0000 
E_coul   =         0.0000 E_long   =         0.0000 Press    =         1.4925
------------ Step           1300 ----- CPU =   0.04024418 (sec) -------------
TotEng   =       199.9503 KinEng   =       199.9503 Temp     =         2.6660 
PotEng   =         0.0000 E_bond   =         0.0000 E_angle  =         0.0000 
E_dihed  =         0.0000 E_impro  =         0.0000 E_vdwl   =         0.0000 
E_coul   =         0.0000 E_long   =         0.0000 Press    =         1.4072
------------ Step           1400 ----- CPU =   0.04152847 (sec) -------------
TotEng   =       186.1081 KinEng   =       186.1081 Temp     =         2.4814 
PotEng   =         0.0000 E_bond   =         0.0000 E_angle  =         0.0000 
E_dihed  =         0.0000 E_impro  =         0.0000 E_vdwl   =         0.0000 
E_coul   =         0.0000 E_long   =         0.0000 Press    =         1.1524
------------ Step           1500 ----- CPU =   0.04274898 (sec) -------------
TotEng   =       154.5280 KinEng   =       154.5280 Temp     =         2.0604 
PotEng   =         0.0000 E_bond   =         0.0000 E_angle  =         0.0000 
E_dihed  =         0.0000 E_impro  =         0.0000 E_vdwl   =         0.0000 
E_coul   =         0.0000 E_long   =         0.0000 Press    =         1.2630
------------ Step           1600 ----- CPU =   0.04394727 (sec) -------------
TotEng   =       132.1825 KinEng   =       132.1825 Temp     =         1.7624 
PotEng   =         0.0000 E_bond   =         0.0000 E_angle  =         0.0000 
E_dihed  =         0.0000 E_impro  =         0.0000 E_vdwl   =         0.0000 
E_coul   =         0.0000 E_long   =         0.0000 Press    =         0.8494
------------ Step           1700 ----- CPU =   0.04574314 (sec) -------------
TotEng   =       112.3221 KinEng   =       112.3221 Temp     =         1.4976 
PotEng   =         0.0000 E_bond   =         0.0000 E_angle  =         0.0000 
E_dihed  =         0.0000 E_impro  =         0.0000 E_vdwl   =         0.0000 
E_coul   =         0.0000 E_long   =         0.0000 Press    =         0.9612
------------ Step           1800 ----- CPU =   0.04698639 (sec) -------------
TotEng   =        96.9277 KinEng   =        96.9277 Temp     =         1.2924 
PotEng   =         0.0000 E_bond   =         0.0000 E_angle  =         0.0000 
E_dihed  =         0.0000 E_impro  =         0.0000 E_vdwl   =         0.0000 
E_coul   =         0.0000 E_long   =         0.0000 Press    =         0.8452
------------ Step           1900 ----- CPU =   0.04813122 (sec) -------------
TotEng   =        88.8093 KinEng   =        88.8093 Temp     =         1.1841 
PotEng   =         0.0000 E_bond   =         0.0000 E_angle  =         0.0000 
E_dihed  =         0.0000 E_impro  =         0.0000 E_vdwl   =         0.0000 
E_coul   =         0.0000 E_long   =         0.0000 Press    =         0.6426
------------ Step           2000 ----- CPU =   0.04936768 (sec) -------------
TotEng   =        89.0527 KinEng   =        89.0527 Temp     =         1.1874 
PotEng   =         0.0000 E_bond   =         0.0000 E_angle  =         0.0000 
E_dihed  =         0.0000 E_impro  =         0.0000 E_vdwl   =         0.0000 
E_coul   =         0.0000 E_long   =         0.0000 Press    =         0.5178
------------ Step           2100 ----- CPU =   0.06590736 (sec) -------------
TotEng   =        86.8470 KinEng   =        86.8470 Temp     =         1.1580 
PotEng   =         0.0000 E_bond   =         0.0000 E_angle  =         0.0000 
E_dihed  =         0.0000 E_impro  =         0.0000 E_vdwl   =         0.0000 
E_coul   =         0.0000 E_long   =         0.0000 Press    =         0.5259
------------ Step           2200 ----- CPU =   0.06718176 (sec) -------------
TotEng   =        74.2139 KinEng   =        74.2139 Temp     =         0.9895 
PotEng   =         0.0000 E_bond   =         0.0000 E_angle  =         0.0000 
E_dihed  =         0.0000 E_impro  =         0.0000 E_vdwl   =         0.0000 
E_coul   =         0.0000 E_long   =         0.0000 Press    =         0.7511
------------ Step           2300 ----- CPU =   0.06857024 (sec) -------------
TotEng   =        64.4434 KinEng   =        64.4434 Temp     =         0.8592 
PotEng   =         0.0000 E_bond   =         0.0000 E_angle  =         0.0000 
E_dihed  =         0.0000 E_impro  =         0.0000 E_vdwl   =         0.0000 
E_coul   =         0.0000 E_long   =         0.0000 Press    =         0.5267
------------ Step           2400 ----- CPU =   0.06991745 (sec) -------------
TotEng   =        60.6250 KinEng   =        60.6250 Temp     =         0.8083 
PotEng   =         0.0000 E_bond   =         0.0000 E_angle  =         0.0000 
E_dihed  =         0.0000 E_impro  =         0.0000 E_vdwl   =         0.0000 
E_coul   =         0.0000 E_long   =         0.0000 Press    =         0.4269
------------ Step           2500 ----- CPU =   0.07109879 (sec) -------------
TotEng   =        58.5839 KinEng   =        58.5839 Temp     =         0.7811 
PotEng   =         0.0000 E_bond   =         0.0000 E_angle  =         0.0000 
E_dihed  =         0.0000 E_impro  =         0.0000 E_vdwl   =         0.0000 
E_coul   =         0.0000 E_long   =         0.0000 Press    =         0.4034
------------ Step           2600 ----- CPU =   0.07222591 (sec) -------------
TotEng   =        56.5601 KinEng   =        56.5601 Temp     =         0.7541 
PotEng   =         0.0000 E_bond   =         0.0000 E_angle  =         0.0000 
E_dihed  =         0.0000 E_impro  =         0.0000 E_vdwl   =         0.0000 
E_coul   =         0.0000 E_long   =         0.0000 Press    =         0.2355
------------ Step           2700 ----- CPU =   0.07338395 (sec) -------------
TotEng   =        54.2431 KinEng   =        54.2431 Temp     =         0.7232 
PotEng   =         0.0000 E_bond   =         0.0000 E_angle  =         0.0000 
E_dihed  =         0.0000 E_impro  =         0.0000 E_vdwl   =         0.0000 
E_coul   =         0.0000 E_long   =         0.0000 Press    =         0.3075
------------ Step           2800 ----- CPU =   0.07458607 (sec) -------------
TotEng   =        54.9295 KinEng   =        54.9295 Temp     =         0.7324 
PotEng   =         0.0000 E_bond   =         0.0000 E_angle  =         0.0000 
E_dihed  =         0.0000 E_impro  =         0.0000 E_vdwl   =         0.0000 
E_coul   =         0.0000 E_long   =         0.0000 Press    =         0.3667
------------ Step           2900 ----- CPU =    0.0757588 (sec) -------------
TotEng   =        53.0925 KinEng   =        53.0925 Temp     =         0.7079 
PotEng   =         0.0000 E_bond   =         0.0000 E_angle  =         0.0000 
E_dihed  =         0.0000 E_impro  =         0.0000 E_vdwl   =         0.0000 
E_coul   =         0.0000 E_long   =         0.0000 Press    =         0.3188
------------ Step           3000 ----- CPU =   0.07692608 (sec) -------------
TotEng   =        53.1523 KinEng   =        53.1523 Temp     =         0.7087 
PotEng   =         0.0000 E_bond   =         0.0000 E_angle  =         0.0000 
E_dihed  =         0.0000 E_impro  =         0.0000 E_vdwl   =         0.0000 
E_coul   =         0.0000 E_long   =         0.0000 Press    =         0.2102
------------ Step           3100 ----- CPU =   0.09072603 (sec) -------------
TotEng   =        50.8671 KinEng   =        50.8671 Temp     =         0.6782 
PotEng   =         0.0000 E_bond   =         0.0000 E_angle  =         0.0000 
E_dihed  =         0.0000 E_impro  =         0.0000 E_vdwl   =         0.0000 
E_coul   =         0.0000 E_long   =         0.0000 Press    =         0.3328
------------ Step           3200 ----- CPU =   0.09518091 (sec) -------------
TotEng   =        47.9866 KinEng   =        47.9866 Temp     =         0.6398 
PotEng   =         0.0000 E_bond   =         0.0000 E_angle  =         0.0000 
E_dihed  =         0.0000 E_impro  =         0.0000 E_vdwl   =         0.0000 
E_coul   =         0.0000 E_long   =         0.0000 Press    =         0.3249
------------ Step           3300 ----- CPU =   0.09722649 (sec) -------------
TotEng   =        44.1922 KinEng   =        44.1922 Temp     =         0.5892 
PotEng   =         0.0000 E_bond   =         0.0000 E_angle  =         0.0000 
E_dihed  =         0.0000 E_impro  =         0.0000 E_vdwl   =         0.0000 
E_coul   =         0.0000 E_long   =         0.0000 Press    =         0.2966
------------ Step           3400 ----- CPU =   0.09849926 (sec) -------------
TotEng   =        41.7298 KinEng   =        41.7298 Temp     =         0.5564 
PotEng   =         0.0000 E_bond   =         0.0000 E_angle  =         0.0000 
E_dihed  =         0.0000 E_impro  =         0.0000 E_vdwl   =         0.0000 
E_coul   =         0.0000 E_long   =         0.0000 Press    =         0.2686
------------ Step           3500 ----- CPU =   0.09979833 (sec) -------------
TotEng   =        38.3632 KinEng   =        38.3632 Temp     =         0.5115 
PotEng   =         0.0000 E_bond   =         0.0000 E_angle  =         0.0000 
E_dihed  =         0.0000 E_impro  =         0.0000 E_vdwl   =         0.0000 
E_coul   =         0.0000 E_long   =         0.0000 Press    =         0.2811
------------ Step           3600 ----- CPU =    0.1010018 (sec) -------------
TotEng   =        36.1047 KinEng   =        36.1047 Temp     =         0.4814 
PotEng   =         0.0000 E_bond   =         0.0000 E_angle  =         0.0000 
E_dihed  =         0.0000 E_impro  =         0.0000 E_vdwl   =         0.0000 
E_coul   =         0.0000 E_long   =         0.0000 Press    =         0.2564
------------ Step           3700 ----- CPU =     0.102186 (sec) -------------
TotEng   =        35.1650 KinEng   =        35.1650 Temp     =         0.4689 
PotEng   =         0.0000 E_bond   =         0.0000 E_angle  =         0.0000 
E_dihed  =         0.0000 E_impro  =         0.0000 E_vdwl   =         0.0000 
E_coul   =         0.0000 E_long   =         0.0000 Press    =         0.2059
------------ Step           3800 ----- CPU =     0.103657 (sec) -------------
TotEng   =        33.1736 KinEng   =        33.1736 Temp     =         0.4423 
PotEng   =         0.0000 E_bond   =         0.0000 E_angle  =         0.0000 
E_dihed  =         0.0000 E_impro  =         0.0000 E_vdwl   =         0.0000 
E_coul   =         0.0000 E_long   =         0.0000 Press    =         0.2511
------------ Step           3900 ----- CPU =    0.1048135 (sec) -------------
TotEng   =        32.2408 KinEng   =        32.2408 Temp     =         0.4299 
PotEng   =         0.0000 E_bond   =         0.0000 E_angle  =         0.0000 
E_dihed  =         0.0000 E_impro  =         0.0000 E_vdwl   =         0.0000 
E_coul   =         0.0000 E_long   =         0.0000 Press    =         0.2401
------------ Step           4000 ----- CPU =    0.1059939 (sec) -------------
TotEng   =        31.2598 KinEng   =        31.2598 Temp     =         0.4168 
PotEng   =         0.0000 E_bond   =         0.0000 E_angle  =         0.0000 
E_dihed  =         0.0000 E_impro  =         0.0000 E_vdwl   =         0.0000 
E_coul   =         0.0000 E_long   =         0.0000 Press    =         0.1769
------------ Step           4100 ----- CPU =    0.1191118 (sec) -------------
TotEng   =        29.9121 KinEng   =        29.9121 Temp     =         0.3988 
PotEng   =         0.0000 E_bond   =         0.0000 E_angle  =         0.0000 
E_dihed  =         0.0000 E_impro  =         0.0000 E_vdwl   =         0.0000 
E_coul   =         0.0000 E_long   =         0.0000 Press    =         0.1844
------------ Step           4200 ----- CPU =    0.1235199 (sec) -------------
TotEng   =        30.0004 KinEng   =        30.0004 Temp     =         0.4000 
PotEng   =         0.0000 E_bond   =         0.0000 E_angle  =         0.0000 
E_dihed  =         0.0000 E_impro  =         0.0000 E_vdwl   =         0.0000 
E_coul   =         0.0000 E_long   =         0.0000 Press    =         0.1562
------------ Step           4300 ----- CPU =    0.1259397 (sec) -------------
TotEng   =        27.8467 KinEng   =        27.8467 Temp     =         0.3713 
PotEng   =         0.0000 E_bond   =         0.0000 E_angle  =         0.0000 
E_dihed  =         0.0000 E_impro  =         0.0000 E_vdwl   =         0.0000 
E_coul   =         0.0000 E_long   =         0.0000 Press    =         0.1856
------------ Step           4400 ----- CPU =    0.1272019 (sec) -------------
TotEng   =        27.8839 KinEng   =        27.8839 Temp     =         0.3718 
PotEng   =         0.0000 E_bond   =         0.0000 E_angle  =         0.0000 
E_dihed  =         0.0000 E_impro  =         0.0000 E_vdwl   =         0.0000 
E_coul   =         0.0000 E_long   =         0.0000 Press    =         0.1550
------------ Step           4500 ----- CPU =    0.1289506 (sec) -------------
TotEng   =        26.7354 KinEng   =        26.7354 Temp     =         0.3565 
PotEng   =         0.0000 E_bond   =         0.0000 E_angle  =         0.0000 
E_dihed  =         0.0000 E_impro  =         0.0000 E_vdwl   =         0.0000 
E_coul   =         0.0000 E_long   =         0.0000 Press    =         0.1892
------------ Step           4600 ----- CPU =    0.1309673 (sec) -------------
TotEng   =        26.5073 KinEng   =        26.5073 Temp     =         0.3534 
PotEng   =         0.0000 E_bond   =         0.0000 E_angle  =         0.0000 
E_dihed  =         0.0000 E_impro  =         0.0000 E_vdwl   =         0.0000 
E_coul   =         0.0000 E_long   =         0.0000 Press    =         0.1245
------------ Step           4700 ----- CPU =    0.1321869 (sec) -------------
TotEng   =        26.3653 KinEng   =        26.3653 Temp     =         0.3515 
PotEng   =         0.0000 E_bond   =         0.0000 E_angle  =         0.0000 
E_dihed  =         0.0000 E_impro  =         0.0000 E_vdwl   =         0.0000 
E_coul   =         0.0000 E_long   =         0.0000 Press    =         0.0994
------------ Step           4800 ----- CPU =      0.13353 (sec) -------------
TotEng   =        26.3146 KinEng   =        26.3146 Temp     =         0.3509 
PotEng   =         0.0000 E_bond   =         0.0000 E_angle  =         0.0000 
E_dihed  =         0.0000 E_impro  =         0.0000 E_vdwl   =         0.0000 
E_coul   =         0.0000 E_long   =         0.0000 Press    =         0.1096
------------ Step           4900 ----- CPU =    0.1347914 (sec) -------------
TotEng   =        25.1571 KinEng   =        25.1571 Temp     =         0.3354 
PotEng   =         0.0000 E_bond   =         0.0000 E_angle  =         0.0000 
E_dihed  =         0.0000 E_impro  =         0.0000 E_vdwl   =         0.0000 
E_coul   =         0.0000 E_long   =         0.0000 Press    =         0.1682
------------ Step           5000 ----- CPU =     0.136004 (sec) -------------
TotEng   =        23.2170 KinEng   =        23.2170 Temp     =         0.3096 
PotEng   =         0.0000 E_bond   =         0.0000 E_angle  =         0.0000 
E_dihed  =         0.0000 E_impro  =         0.0000 E_vdwl   =         0.0000 
E_coul   =         0.0000 E_long   =         0.0000 Press    =         0.2617
------------ Step           5100 ----- CPU =    0.1492509 (sec) -------------
TotEng   =        22.9818 KinEng   =        22.9818 Temp     =         0.3064 
PotEng   =         0.0000 E_bond   =         0.0000 E_angle  =         0.0000 
E_dihed  =         0.0000 E_impro  =         0.0000 E_vdwl   =         0.0000 
E_coul   =         0.0000 E_long   =         0.0000 Press    =         0.1120
------------ Step           5200 ----- CPU =    0.1504095 (sec) -------------
TotEng   =        21.4557 KinEng   =        21.4557 Temp     =         0.2861 
PotEng   =         0.0000 E_bond   =         0.0000 E_angle  =         0.0000 
E_dihed  =         0.0000 E_impro  =         0.0000 E_vdwl   =         0.0000 
E_coul   =         0.0000 E_long   =         0.0000 Press    =         0.1843
------------ Step           5300 ----- CPU =    0.1514809 (sec) -------------
TotEng   =        21.5453 KinEng   =        21.5453 Temp     =         0.2873 
PotEng   =         0.0000 E_bond   =         0.0000 E_angle  =         0.0000 
E_dihed  =         0.0000 E_impro  =         0.0000 E_vdwl   =         0.0000 
E_coul   =         0.0000 E_long   =         0.0000 Press    =         0.1401
------------ Step           5400 ----- CPU =    0.1525343 (sec) -------------
TotEng   =        21.5153 KinEng   =        21.5153 Temp     =         0.2869 
PotEng   =         0.0000 E_bond   =         0.0000 E_angle  =         0.0000 
E_dihed  =         0.0000 E_impro  =         0.0000 E_vdwl   =         0.0000 
E_coul   =         0.0000 E_long   =         0.0000 Press    =         0.0982
------------ Step           5500 ----- CPU =    0.1563711 (sec) -------------
TotEng   =        21.1475 KinEng   =        21.1475 Temp     =         0.2820 
PotEng   =         0.0000 E_bond   =         0.0000 E_angle  =         0.0000 
E_dihed  =         0.0000 E_impro  =         0.0000 E_vdwl   =         0.0000 
E_coul   =         0.0000 E_long   =         0.0000 Press    =         0.1382
------------ Step           5600 ----- CPU =    0.1579161 (sec) -------------
TotEng   =        20.0554 KinEng   =        20.0554 Temp     =         0.2674 
PotEng   =         0.0000 E_bond   =         0.0000 E_angle  =         0.0000 
E_dihed  =         0.0000 E_impro  =         0.0000 E_vdwl   =         0.0000 
E_coul   =         0.0000 E_long   =         0.0000 Press    =         0.1627
------------ Step           5700 ----- CPU =    0.1590476 (sec) -------------
TotEng   =        19.5246 KinEng   =        19.5246 Temp     =         0.2603 
PotEng   =         0.0000 E_bond   =         0.0000 E_angle  =         0.0000 
E_dihed  =         0.0000 E_impro  =         0.0000 E_vdwl   =         0.0000 
E_coul   =         0.0000 E_long   =         0.0000 Press    =         0.1451
------------ Step           5800 ----- CPU =    0.1603198 (sec) -------------
TotEng   =        19.2501 KinEng   =        19.2501 Temp     =         0.2567 
PotEng   =         0.0000 E_bond   =         0.0000 E_angle  =         0.0000 
E_dihed  =         0.0000 E_impro  =         0.0000 E_vdwl   =         0.0000 
E_coul   =         0.0000 E_long   =         0.0000 Press    =         0.0878
------------ Step           5900 ----- CPU =    0.1615401 (sec) -------------
TotEng   =        18.9660 KinEng   =        18.9660 Temp     =         0.2529 
PotEng   =         0.0000 E_bond   =         0.0000 E_angle  =         0.0000 
E_dihed  =         0.0000 E_impro  =         0.0000 E_vdwl   =         0.0000 
E_coul   =         0.0000 E_long   =         0.0000 Press    =         0.1071
------------ Step           6000 ----- CPU =    0.1626214 (sec) -------------
TotEng   =        18.4692 KinEng   =        18.4692 Temp     =         0.2463 
PotEng   =         0.0000 E_bond   =         0.0000 E_angle  =         0.0000 
E_dihed  =         0.0000 E_impro  =         0.0000 E_vdwl   =         0.0000 
E_coul   =         0.0000 E_long   =         0.0000 Press    =         0.0731
------------ Step           6100 ----- CPU =    0.3489094 (sec) -------------
TotEng   =        17.9351 KinEng   =        17.9351 Temp     =         0.2391 
PotEng   =         0.0000 E_bond   =         0.0000 E_angle  =         0.0000 
E_dihed  =         0.0000 E_impro  =         0.0000 E_vdwl   =         0.0000 
E_coul   =         0.0000 E_long   =         0.0000 Press    =         0.1513
------------ Step           6200 ----- CPU =    0.3501757 (sec) -------------
TotEng   =        17.9027 KinEng   =        17.9027 Temp     =         0.2387 
PotEng   =         0.0000 E_bond   =         0.0000 E_angle  =         0.0000 
E_dihed  =         0.0000 E_impro  =         0.0000 E_vdwl   =         0.0000 
E_coul   =         0.0000 E_long   =         0.0000 Press    =         0.0799
------------ Step           6300 ----- CPU =    0.3512697 (sec) -------------
TotEng   =        17.9131 KinEng   =        17.9131 Temp     =         0.2388 
PotEng   =         0.0000 E_bond   =         0.0000 E_angle  =         0.0000 
E_dihed  =         0.0000 E_impro  =         0.0000 E_vdwl   =         0.0000 
E_coul   =         0.0000 E_long   =         0.0000 Press    =         0.0708
------------ Step           6400 ----- CPU =    0.3523934 (sec) -------------
TotEng   =        17.6449 KinEng   =        17.6449 Temp     =         0.2353 
PotEng   =         0.0000 E_bond   =         0.0000 E_angle  =         0.0000 
E_dihed  =         0.0000 E_impro  =         0.0000 E_vdwl   =         0.0000 
E_coul   =         0.0000 E_long   =         0.0000 Press    =         0.1033
------------ Step           6500 ----- CPU =    0.3535603 (sec) -------------
TotEng   =        17.3314 KinEng   =        17.3314 Temp     =         0.2311 
PotEng   =         0.0000 E_bond   =         0.0000 E_angle  =         0.0000 
E_dihed  =         0.0000 E_impro  =         0.0000 E_vdwl   =         0.0000 
E_coul   =         0.0000 E_long   =         0.0000 Press    =         0.1070
------------ Step           6600 ----- CPU =    0.3546681 (sec) -------------
TotEng   =        17.0215 KinEng   =        17.0215 Temp     =         0.2270 
PotEng   =         0.0000 E_bond   =         0.0000 E_angle  =         0.0000 
E_dihed  =         0.0000 E_impro  =         0.0000 E_vdwl   =         0.0000 
E_coul   =         0.0000 E_long   =         0.0000 Press    =         0.0730
------------ Step           6700 ----- CPU =    0.3557734 (sec) -------------
TotEng   =        16.3293 KinEng   =        16.3293 Temp     =         0.2177 
PotEng   =         0.0000 E_bond   =         0.0000 E_angle  =         0.0000 
E_dihed  =         0.0000 E_impro  =         0.0000 E_vdwl   =         0.0000 
E_coul   =         0.0000 E_long   =         0.0000 Press    =         0.0929
------------ Step           6800 ----- CPU =    0.3568477 (sec) -------------
TotEng   =        16.0696 KinEng   =        16.0696 Temp     =         0.2143 
PotEng   =         0.0000 E_bond   =         0.0000 E_angle  =         0.0000 
E_dihed  =         0.0000 E_impro  =         0.0000 E_vdwl   =         0.0000 
E_coul   =         0.0000 E_long   =         0.0000 Press    =         0.0628
------------ Step           6900 ----- CPU =    0.3579778 (sec) -------------
TotEng   =        16.0662 KinEng   =        16.0662 Temp     =         0.2142 
PotEng   =         0.0000 E_bond   =         0.0000 E_angle  =         0.0000 
E_dihed  =         0.0000 E_impro  =         0.0000 E_vdwl   =         0.0000 
E_coul   =         0.0000 E_long   =         0.0000 Press    =         0.0722
------------ Step           7000 ----- CPU =    0.3591039 (sec) -------------
TotEng   =        16.1061 KinEng   =        16.1061 Temp     =         0.2147 
PotEng   =         0.0000 E_bond   =         0.0000 E_angle  =         0.0000 
E_dihed  =         0.0000 E_impro  =         0.0000 E_vdwl   =         0.0000 
E_coul   =         0.0000 E_long   =         0.0000 Press    =         0.0992
------------ Step           7100 ----- CPU =    0.3779901 (sec) -------------
TotEng   =        15.7254 KinEng   =        15.7254 Temp     =         0.2097 
PotEng   =         0.0000 E_bond   =         0.0000 E_angle  =         0.0000 
E_dihed  =         0.0000 E_impro  =         0.0000 E_vdwl   =         0.0000 
E_coul   =         0.0000 E_long   =         0.0000 Press    =         0.1325
------------ Step           7200 ----- CPU =    0.3792732 (sec) -------------
TotEng   =        15.7470 KinEng   =        15.7470 Temp     =         0.2100 
PotEng   =         0.0000 E_bond   =         0.0000 E_angle  =         0.0000 
E_dihed  =         0.0000 E_impro  =         0.0000 E_vdwl   =         0.0000 
E_coul   =         0.0000 E_long   =         0.0000 Press    =         0.1053
------------ Step           7300 ----- CPU =    0.3803888 (sec) -------------
TotEng   =        15.4081 KinEng   =        15.4081 Temp     =         0.2054 
PotEng   =         0.0000 E_bond   =         0.0000 E_angle  =         0.0000 
E_dihed  =         0.0000 E_impro  =         0.0000 E_vdwl   =         0.0000 
E_coul   =         0.0000 E_long   =         0.0000 Press    =         0.0947
------------ Step           7400 ----- CPU =    0.3822519 (sec) -------------
TotEng   =        15.1825 KinEng   =        15.1825 Temp     =         0.2024 
PotEng   =         0.0000 E_bond   =         0.0000 E_angle  =         0.0000 
E_dihed  =         0.0000 E_impro  =         0.0000 E_vdwl   =         0.0000 
E_coul   =         0.0000 E_long   =         0.0000 Press    =         0.1132
------------ Step           7500 ----- CPU =     0.383405 (sec) -------------
TotEng   =        15.1143 KinEng   =        15.1143 Temp     =         0.2015 
PotEng   =         0.0000 E_bond   =         0.0000 E_angle  =         0.0000 
E_dihed  =         0.0000 E_impro  =         0.0000 E_vdwl   =         0.0000 
E_coul   =         0.0000 E_long   =         0.0000 Press    =         0.0804
------------ Step           7600 ----- CPU =    0.3846759 (sec) -------------
TotEng   =        14.8015 KinEng   =        14.8015 Temp     =         0.1974 
PotEng   =         0.0000 E_bond   =         0.0000 E_angle  =         0.0000 
E_dihed  =         0.0000 E_impro  =         0.0000 E_vdwl   =         0.0000 
E_coul   =         0.0000 E_long   =         0.0000 Press    =         0.0739
------------ Step           7700 ----- CPU =    0.3857828 (sec) -------------
TotEng   =        14.3850 KinEng   =        14.3850 Temp     =         0.1918 
PotEng   =         0.0000 E_bond   =         0.0000 E_angle  =         0.0000 
E_dihed  =         0.0000 E_impro  =         0.0000 E_vdwl   =         0.0000 
E_coul   =         0.0000 E_long   =         0.0000 Press    =         0.0942
------------ Step           7800 ----- CPU =    0.3869902 (sec) -------------
TotEng   =        13.8095 KinEng   =        13.8095 Temp     =         0.1841 
PotEng   =         0.0000 E_bond   =         0.0000 E_angle  =         0.0000 
E_dihed  =         0.0000 E_impro  =         0.0000 E_vdwl   =         0.0000 
E_coul   =         0.0000 E_long   =         0.0000 Press    =         0.0744
------------ Step           7900 ----- CPU =    0.3880617 (sec) -------------
TotEng   =        13.7379 KinEng   =        13.7379 Temp     =         0.1832 
PotEng   =         0.0000 E_bond   =         0.0000 E_angle  =         0.0000 
E_dihed  =         0.0000 E_impro  =         0.0000 E_vdwl   =         0.0000 
E_coul   =         0.0000 E_long   =         0.0000 Press    =         0.0749
------------ Step           8000 ----- CPU =     0.389149 (sec) -------------
TotEng   =        13.1507 KinEng   =        13.1507 Temp     =         0.1753 
PotEng   =         0.0000 E_bond   =         0.0000 E_angle  =         0.0000 
E_dihed  =         0.0000 E_impro  =         0.0000 E_vdwl   =         0.0000 
E_coul   =         0.0000 E_long   =         0.0000 Press    =         0.0805
------------ Step           8100 ----- CPU =    0.4046692 (sec) -------------
TotEng   =        13.0836 KinEng   =        13.0836 Temp     =         0.1744 
PotEng   =         0.0000 E_bond   =         0.0000 E_angle  =         0.0000 
E_dihed  =         0.0000 E_impro  =         0.0000 E_vdwl   =         0.0000 
E_coul   =         0.0000 E_long   =         0.0000 Press    =         0.0664
------------ Step           8200 ----- CPU =    0.4071073 (sec) -------------
TotEng   =        12.8368 KinEng   =        12.8368 Temp     =         0.1712 
PotEng   =         0.0000 E_bond   =         0.0000 E_angle  =         0.0000 
E_dihed  =         0.0000 E_impro  =         0.0000 E_vdwl   =         0.0000 
E_coul   =         0.0000 E_long   =         0.0000 Press    =         0.0952
------------ Step           8300 ----- CPU =    0.4094751 (sec) -------------
TotEng   =        12.4667 KinEng   =        12.4667 Temp     =         0.1662 
PotEng   =         0.0000 E_bond   =         0.0000 E_angle  =         0.0000 
E_dihed  =         0.0000 E_impro  =         0.0000 E_vdwl   =         0.0000 
E_coul   =         0.0000 E_long   =         0.0000 Press    =         0.0759
------------ Step           8400 ----- CPU =    0.4106015 (sec) -------------
TotEng   =        12.2650 KinEng   =        12.2650 Temp     =         0.1635 
PotEng   =         0.0000 E_bond   =         0.0000 E_angle  =         0.0000 
E_dihed  =         0.0000 E_impro  =         0.0000 E_vdwl   =         0.0000 
E_coul   =         0.0000 E_long   =         0.0000 Press    =         0.1166
------------ Step           8500 ----- CPU =    0.4117359 (sec) -------------
TotEng   =        11.6921 KinEng   =        11.6921 Temp     =         0.1559 
PotEng   =         0.0000 E_bond   =         0.0000 E_angle  =         0.0000 
E_dihed  =         0.0000 E_impro  =         0.0000 E_vdwl   =         0.0000 
E_coul   =         0.0000 E_long   =         0.0000 Press    =         0.0753
------------ Step           8600 ----- CPU =    0.4129992 (sec) -------------
TotEng   =        11.4786 KinEng   =        11.4786 Temp     =         0.1530 
PotEng   =         0.0000 E_bond   =         0.0000 E_angle  =         0.0000 
E_dihed  =         0.0000 E_impro  =         0.0000 E_vdwl   =         0.0000 
E_coul   =         0.0000 E_long   =         0.0000 Press    =         0.0797
------------ Step           8700 ----- CPU =    0.4149122 (sec) -------------
TotEng   =        11.3620 KinEng   =        11.3620 Temp     =         0.1515 
PotEng   =         0.0000 E_bond   =         0.0000 E_angle  =         0.0000 
E_dihed  =         0.0000 E_impro  =         0.0000 E_vdwl   =         0.0000 
E_coul   =         0.0000 E_long   =         0.0000 Press    =         0.0570
------------ Step           8800 ----- CPU =    0.4162194 (sec) -------------
TotEng   =        11.0104 KinEng   =        11.0104 Temp     =         0.1468 
PotEng   =         0.0000 E_bond   =         0.0000 E_angle  =         0.0000 
E_dihed  =         0.0000 E_impro  =         0.0000 E_vdwl   =         0.0000 
E_coul   =         0.0000 E_long   =         0.0000 Press    =         0.0788
------------ Step           8900 ----- CPU =    0.4173473 (sec) -------------
TotEng   =        10.9560 KinEng   =        10.9560 Temp     =         0.1461 
PotEng   =         0.0000 E_bond   =         0.0000 E_angle  =         0.0000 
E_dihed  =         0.0000 E_impro  =         0.0000 E_vdwl   =         0.0000 
E_coul   =         0.0000 E_long   =         0.0000 Press    =         0.0563
------------ Step           9000 ----- CPU =    0.4184672 (sec) -------------
TotEng   =        10.9287 KinEng   =        10.9287 Temp     =         0.1457 
PotEng   =         0.0000 E_bond   =         0.0000 E_angle  =         0.0000 
E_dihed  =         0.0000 E_impro  =         0.0000 E_vdwl   =         0.0000 
E_coul   =         0.0000 E_long   =         0.0000 Press    =         0.0579
------------ Step           9100 ----- CPU =    0.4344744 (sec) -------------
TotEng   =        10.8200 KinEng   =        10.8200 Temp     =         0.1443 
PotEng   =         0.0000 E_bond   =         0.0000 E_angle  =         0.0000 
E_dihed  =         0.0000 E_impro  =         0.0000 E_vdwl   =         0.0000 
E_coul   =         0.0000 E_long   =         0.0000 Press    =         0.0666
------------ Step           9200 ----- CPU =    0.4358163 (sec) -------------
TotEng   =        10.7705 KinEng   =        10.7705 Temp     =         0.1436 
PotEng   =         0.0000 E_bond   =         0.0000 E_angle  =         0.0000 
E_dihed  =         0.0000 E_impro  =         0.0000 E_vdwl   =         0.0000 
E_coul   =         0.0000 E_long   =         0.0000 Press    =         0.0394
------------ Step           9300 ----- CPU =    0.4374678 (sec) -------------
TotEng   =        10.7484 KinEng   =        10.7484 Temp     =         0.1433 
PotEng   =         0.0000 E_bond   =         0.0000 E_angle  =         0.0000 
E_dihed  =         0.0000 E_impro  =         0.0000 E_vdwl   =         0.0000 
E_coul   =         0.0000 E_long   =         0.0000 Press    =         0.0482
------------ Step           9400 ----- CPU =    0.4420339 (sec) -------------
TotEng   =        10.5805 KinEng   =        10.5805 Temp     =         0.1411 
PotEng   =         0.0000 E_bond   =         0.0000 E_angle  =         0.0000 
E_dihed  =         0.0000 E_impro  =         0.0000 E_vdwl   =         0.0000 
E_coul   =         0.0000 E_long   =         0.0000 Press    =         0.0687
------------ Step           9500 ----- CPU =    0.4431743 (sec) -------------
TotEng   =        10.6126 KinEng   =        10.6126 Temp     =         0.1415 
PotEng   =         0.0000 E_bond   =         0.0000 E_angle  =         0.0000 
E_dihed  =         0.0000 E_impro  =         0.0000 E_vdwl   =         0.0000 
E_coul   =         0.0000 E_long   =         0.0000 Press    =         0.0422
------------ Step           9600 ----- CPU =    0.4444347 (sec) -------------
TotEng   =        10.4797 KinEng   =        10.4797 Temp     =         0.1397 
PotEng   =         0.0000 E_bond   =         0.0000 E_angle  =         0.0000 
E_dihed  =         0.0000 E_impro  =         0.0000 E_vdwl   =         0.0000 
E_coul   =         0.0000 E_long   =         0.0000 Press    =         0.0752
------------ Step           9700 ----- CPU =    0.4457234 (sec) -------------
TotEng   =        10.4436 KinEng   =        10.4436 Temp     =         0.1392 
PotEng   =         0.0000 E_bond   =         0.0000 E_angle  =         0.0000 
E_dihed  =         0.0000 E_impro  =         0.0000 E_vdwl   =         0.0000 
E_coul   =         0.0000 E_long   =         0.0000 Press    =         0.0625
------------ Step           9800 ----- CPU =    0.4468449 (sec) -------------
TotEng   =        10.3040 KinEng   =        10.3040 Temp     =         0.1374 
PotEng   =         0.0000 E_bond   =         0.0000 E_angle  =         0.0000 
E_dihed  =         0.0000 E_impro  =         0.0000 E_vdwl   =         0.0000 
E_coul   =         0.0000 E_long   =         0.0000 Press    =         0.0704
------------ Step           9900 ----- CPU =     0.448022 (sec) -------------
TotEng   =        10.3151 KinEng   =        10.3151 Temp     =         0.1375 
PotEng   =         0.0000 E_bond   =         0.0000 E_angle  =         0.0000 
E_dihed  =         0.0000 E_impro  =         0.0000 E_vdwl   =         0.0000 
E_coul   =         0.0000 E_long   =         0.0000 Press    =         0.0651
------------ Step          10000 ----- CPU =    0.4490867 (sec) -------------
TotEng   =        10.3794 KinEng   =        10.3794 Temp     =         0.1384 
PotEng   =         0.0000 E_bond   =         0.0000 E_angle  =         0.0000 
E_dihed  =         0.0000 E_impro  =         0.0000 E_vdwl   =         0.0000 
E_coul   =         0.0000 E_long   =         0.0000 Press    =         0.0470
------------ Step          10100 ----- CPU =    0.4644333 (sec) -------------
TotEng   =        10.4154 KinEng   =        10.4154 Temp     =         0.1389 
PotEng   =         0.0000 E_bond   =         0.0000 E_angle  =         0.0000 
E_dihed  =         0.0000 E_impro  =         0.0000 E_vdwl   =         0.0000 
E_coul   =         0.0000 E_long   =         0.0000 Press    =         0.0487
------------ Step          10200 ----- CPU =    0.4655807 (sec) -------------
TotEng   =        10.2611 KinEng   =        10.2611 Temp     =         0.1368 
PotEng   =         0.0000 E_bond   =         0.0000 E_angle  =         0.0000 
E_dihed  =         0.0000 E_impro  =         0.0000 E_vdwl   =         0.0000 
E_coul   =         0.0000 E_long   =         0.0000 Press    =         0.0495
------------ Step          10300 ----- CPU =     0.466646 (sec) -------------
TotEng   =        10.1689 KinEng   =        10.1689 Temp     =         0.1356 
PotEng   =         0.0000 E_bond   =         0.0000 E_angle  =         0.0000 
E_dihed  =         0.0000 E_impro  =         0.0000 E_vdwl   =         0.0000 
E_coul   =         0.0000 E_long   =         0.0000 Press    =         0.0397
------------ Step          10400 ----- CPU =    0.4676927 (sec) -------------
TotEng   =        10.1608 KinEng   =        10.1608 Temp     =         0.1355 
PotEng   =         0.0000 E_bond   =         0.0000 E_angle  =         0.0000 
E_dihed  =         0.0000 E_impro  =         0.0000 E_vdwl   =         0.0000 
E_coul   =         0.0000 E_long   =         0.0000 Press    =         0.0505
------------ Step          10500 ----- CPU =    0.4687873 (sec) -------------
TotEng   =         9.6386 KinEng   =         9.6386 Temp     =         0.1285 
PotEng   =         0.0000 E_bond   =         0.0000 E_angle  =         0.0000 
E_dihed  =         0.0000 E_impro  =         0.0000 E_vdwl   =         0.0000 
E_coul   =         0.0000 E_long   =         0.0000 Press    =         0.0741
------------ Step          10600 ----- CPU =    0.4698578 (sec) -------------
TotEng   =         9.6518 KinEng   =         9.6518 Temp     =         0.1287 
PotEng   =         0.0000 E_bond   =         0.0000 E_angle  =         0.0000 
E_dihed  =         0.0000 E_impro  =         0.0000 E_vdwl   =         0.0000 
E_coul   =         0.0000 E_long   =         0.0000 Press    =         0.0394
------------ Step          10700 ----- CPU =    0.4742787 (sec) -------------
TotEng   =         9.5584 KinEng   =         9.5584 Temp     =         0.1274 
PotEng   =         0.0000 E_bond   =         0.0000 E_angle  =         0.0000 
E_dihed  =         0.0000 E_impro  =         0.0000 E_vdwl   =         0.0000 
E_coul   =         0.0000 E_long   =         0.0000 Press    =         0.0494
------------ Step          10800 ----- CPU =    0.4755903 (sec) -------------
TotEng   =         9.5242 KinEng   =         9.5242 Temp     =         0.1270 
PotEng   =         0.0000 E_bond   =         0.0000 E_angle  =         0.0000 
E_dihed  =         0.0000 E_impro  =         0.0000 E_vdwl   =         0.0000 
E_coul   =         0.0000 E_long   =         0.0000 Press    =         0.0359
------------ Step          10900 ----- CPU =    0.4766618 (sec) -------------
TotEng   =         9.4789 KinEng   =         9.4789 Temp     =         0.1264 
PotEng   =         0.0000 E_bond   =         0.0000 E_angle  =         0.0000 
E_dihed  =         0.0000 E_impro  =         0.0000 E_vdwl   =         0.0000 
E_coul   =         0.0000 E_long   =         0.0000 Press    =         0.0629
------------ Step          11000 ----- CPU =    0.4777863 (sec) -------------
TotEng   =         9.2903 KinEng   =         9.2903 Temp     =         0.1239 
PotEng   =         0.0000 E_bond   =         0.0000 E_angle  =         0.0000 
E_dihed  =         0.0000 E_impro  =         0.0000 E_vdwl   =         0.0000 
E_coul   =         0.0000 E_long   =         0.0000 Press    =         0.0535
------------ Step          11100 ----- CPU =    0.4934831 (sec) -------------
TotEng   =         9.3011 KinEng   =         9.3011 Temp     =         0.1240 
PotEng   =         0.0000 E_bond   =         0.0000 E_angle  =         0.0000 
E_dihed  =         0.0000 E_impro  =         0.0000 E_vdwl   =         0.0000 
E_coul   =         0.0000 E_long   =         0.0000 Press    =         0.0363
------------ Step          11200 ----- CPU =    0.4946286 (sec) -------------
TotEng   =         9.1081 KinEng   =         9.1081 Temp     =         0.1214 
PotEng   =         0.0000 E_bond   =         0.0000 E_angle  =         0.0000 
E_dihed  =         0.0000 E_impro  =         0.0000 E_vdwl   =         0.0000 
E_coul   =         0.0000 E_long   =         0.0000 Press    =         0.0484
------------ Step          11300 ----- CPU =    0.4957207 (sec) -------------
TotEng   =         9.1510 KinEng   =         9.1510 Temp     =         0.1220 
PotEng   =         0.0000 E_bond   =         0.0000 E_angle  =         0.0000 
E_dihed  =         0.0000 E_impro  =         0.0000 E_vdwl   =         0.0000 
E_coul   =         0.0000 E_long   =         0.0000 Press    =         0.0357
------------ Step          11400 ----- CPU =    0.4968078 (sec) -------------
TotEng   =         9.0848 KinEng   =         9.0848 Temp     =         0.1211 
PotEng   =         0.0000 E_bond   =         0.0000 E_angle  =         0.0000 
E_dihed  =         0.0000 E_impro  =         0.0000 E_vdwl   =         0.0000 
E_coul   =         0.0000 E_long   =         0.0000 Press    =         0.0489
------------ Step          11500 ----- CPU =    0.4978896 (sec) -------------
TotEng   =         8.9545 KinEng   =         8.9545 Temp     =         0.1194 
PotEng   =         0.0000 E_bond   =         0.0000 E_angle  =         0.0000 
E_dihed  =         0.0000 E_impro  =         0.0000 E_vdwl   =         0.0000 
E_coul   =         0.0000 E_long   =         0.0000 Press    =         0.0517
------------ Step          11600 ----- CPU =    0.4990212 (sec) -------------
TotEng   =         8.9360 KinEng   =         8.9360 Temp     =         0.1191 
PotEng   =         0.0000 E_bond   =         0.0000 E_angle  =         0.0000 
E_dihed  =         0.0000 E_impro  =         0.0000 E_vdwl   =         0.0000 
E_coul   =         0.0000 E_long   =         0.0000 Press    =         0.0359
------------ Step          11700 ----- CPU =    0.5001482 (sec) -------------
TotEng   =         8.7229 KinEng   =         8.7229 Temp     =         0.1163 
PotEng   =         0.0000 E_bond   =         0.0000 E_angle  =         0.0000 
E_dihed  =         0.0000 E_impro  =         0.0000 E_vdwl   =         0.0000 
E_coul   =         0.0000 E_long   =         0.0000 Press    =         0.0549
------------ Step          11800 ----- CPU =    0.5012049 (sec) -------------
TotEng   =         8.6688 KinEng   =         8.6688 Temp     =         0.1156 
PotEng   =         0.0000 E_bond   =         0.0000 E_angle  =         0.0000 
E_dihed  =         0.0000 E_impro  =         0.0000 E_vdwl   =         0.0000 
E_coul   =         0.0000 E_long   =         0.0000 Press    =         0.0389
------------ Step          11900 ----- CPU =    0.5035217 (sec) -------------
TotEng   =         8.5750 KinEng   =         8.5750 Temp     =         0.1143 
PotEng   =         0.0000 E_bond   =         0.0000 E_angle  =         0.0000 
E_dihed  =         0.0000 E_impro  =         0.0000 E_vdwl   =         0.0000 
E_coul   =         0.0000 E_long   =         0.0000 Press    =         0.0516
------------ Step          12000 ----- CPU =    0.5060173 (sec) -------------
TotEng   =         8.4959 KinEng   =         8.4959 Temp     =         0.1133 
PotEng   =         0.0000 E_bond   =         0.0000 E_angle  =         0.0000 
E_dihed  =         0.0000 E_impro  =         0.0000 E_vdwl   =         0.0000 
E_coul   =         0.0000 E_long   =         0.0000 Press    =         0.0305
------------ Step          12100 ----- CPU =    0.5231833 (sec) -------------
TotEng   =         8.4757 KinEng   =         8.4757 Temp     =         0.1130 
PotEng   =         0.0000 E_bond   =         0.0000 E_angle  =         0.0000 
E_dihed  =         0.0000 E_impro  =         0.0000 E_vdwl   =         0.0000 
E_coul   =         0.0000 E_long   =         0.0000 Press    =         0.0379
------------ Step          12200 ----- CPU =    0.5243916 (sec) -------------
TotEng   =         8.4037 KinEng   =         8.4037 Temp     =         0.1120 
PotEng   =         0.0000 E_bond   =         0.0000 E_angle  =         0.0000 
E_dihed  =         0.0000 E_impro  =         0.0000 E_vdwl   =         0.0000 
E_coul   =         0.0000 E_long   =         0.0000 Press    =         0.0570
------------ Step          12300 ----- CPU =    0.5255267 (sec) -------------
TotEng   =         8.4078 KinEng   =         8.4078 Temp     =         0.1121 
PotEng   =         0.0000 E_bond   =         0.0000 E_angle  =         0.0000 
E_dihed  =         0.0000 E_impro  =         0.0000 E_vdwl   =         0.0000 
E_coul   =         0.0000 E_long   =         0.0000 Press    =         0.0399
------------ Step          12400 ----- CPU =    0.5265905 (sec) -------------
TotEng   =         8.3845 KinEng   =         8.3845 Temp     =         0.1118 
PotEng   =         0.0000 E_bond   =         0.0000 E_angle  =         0.0000 
E_dihed  =         0.0000 E_impro  =         0.0000 E_vdwl   =         0.0000 
E_coul   =         0.0000 E_long   =         0.0000 Press    =         0.0441
------------ Step          12500 ----- CPU =    0.5277004 (sec) -------------
TotEng   =         8.1916 KinEng   =         8.1916 Temp     =         0.1092 
PotEng   =         0.0000 E_bond   =         0.0000 E_angle  =         0.0000 
E_dihed  =         0.0000 E_impro  =         0.0000 E_vdwl   =         0.0000 
E_coul   =         0.0000 E_long   =         0.0000 Press    =         0.0559
------------ Step          12600 ----- CPU =    0.5291912 (sec) -------------
TotEng   =         8.1784 KinEng   =         8.1784 Temp     =         0.1090 
PotEng   =         0.0000 E_bond   =         0.0000 E_angle  =         0.0000 
E_dihed  =         0.0000 E_impro  =         0.0000 E_vdwl   =         0.0000 
E_coul   =         0.0000 E_long   =         0.0000 Press    =         0.0374
------------ Step          12700 ----- CPU =    0.5304068 (sec) -------------
TotEng   =         8.1490 KinEng   =         8.1490 Temp     =         0.1087 
PotEng   =         0.0000 E_bond   =         0.0000 E_angle  =         0.0000 
E_dihed  =         0.0000 E_impro  =         0.0000 E_vdwl   =         0.0000 
E_coul   =         0.0000 E_long   =         0.0000 Press    =         0.0416
------------ Step          12800 ----- CPU =     0.532135 (sec) -------------
TotEng   =         8.1324 KinEng   =         8.1324 Temp     =         0.1084 
PotEng   =         0.0000 E_bond   =         0.0000 E_angle  =         0.0000 
E_dihed  =         0.0000 E_impro  =         0.0000 E_vdwl   =         0.0000 
E_coul   =         0.0000 E_long   =         0.0000 Press    =         0.0398
------------ Step          12900 ----- CPU =    0.5332486 (sec) -------------
TotEng   =         7.8788 KinEng   =         7.8788 Temp     =         0.1051 
PotEng   =         0.0000 E_bond   =         0.0000 E_angle  =         0.0000 
E_dihed  =         0.0000 E_impro  =         0.0000 E_vdwl   =         0.0000 
E_coul   =         0.0000 E_long   =         0.0000 Press    =         0.0757
------------ Step          13000 ----- CPU =    0.5390249 (sec) -------------
TotEng   =         7.7629 KinEng   =         7.7629 Temp     =         0.1035 
PotEng   =         0.0000 E_bond   =         0.0000 E_angle  =         0.0000 
E_dihed  =         0.0000 E_impro  =         0.0000 E_vdwl   =         0.0000 
E_coul   =         0.0000 E_long   =         0.0000 Press    =         0.0477
------------ Step          13100 ----- CPU =    0.5548928 (sec) -------------
TotEng   =         7.8058 KinEng   =         7.8058 Temp     =         0.1041 
PotEng   =         0.0000 E_bond   =         0.0000 E_angle  =         0.0000 
E_dihed  =         0.0000 E_impro  =         0.0000 E_vdwl   =         0.0000 
E_coul   =         0.0000 E_long   =         0.0000 Press    =         0.0354
------------ Step          13200 ----- CPU =    0.5560367 (sec) -------------
TotEng   =         7.6052 KinEng   =         7.6052 Temp     =         0.1014 
PotEng   =         0.0000 E_bond   =         0.0000 E_angle  =         0.0000 
E_dihed  =         0.0000 E_impro  =         0.0000 E_vdwl   =         0.0000 
E_coul   =         0.0000 E_long   =         0.0000 Press    =         0.0768
------------ Step          13300 ----- CPU =     0.557081 (sec) -------------
TotEng   =         7.5204 KinEng   =         7.5204 Temp     =         0.1003 
PotEng   =         0.0000 E_bond   =         0.0000 E_angle  =         0.0000 
E_dihed  =         0.0000 E_impro  =         0.0000 E_vdwl   =         0.0000 
E_coul   =         0.0000 E_long   =         0.0000 Press    =         0.0427
------------ Step          13400 ----- CPU =    0.5581565 (sec) -------------
TotEng   =         7.4876 KinEng   =         7.4876 Temp     =         0.0998 
PotEng   =         0.0000 E_bond   =         0.0000 E_angle  =         0.0000 
E_dihed  =         0.0000 E_impro  =         0.0000 E_vdwl   =         0.0000 
E_coul   =         0.0000 E_long   =         0.0000 Press    =         0.0347
------------ Step          13500 ----- CPU =    0.5592143 (sec) -------------
TotEng   =         7.4232 KinEng   =         7.4232 Temp     =         0.0990 
PotEng   =         0.0000 E_bond   =         0.0000 E_angle  =         0.0000 
E_dihed  =         0.0000 E_impro  =         0.0000 E_vdwl   =         0.0000 
E_coul   =         0.0000 E_long   =         0.0000 Press    =         0.0386
------------ Step          13600 ----- CPU =    0.5602728 (sec) -------------
TotEng   =         7.3498 KinEng   =         7.3498 Temp     =         0.0980 
PotEng   =         0.0000 E_bond   =         0.0000 E_angle  =         0.0000 
E_dihed  =         0.0000 E_impro  =         0.0000 E_vdwl   =         0.0000 
E_coul   =         0.0000 E_long   =         0.0000 Press    =         0.0311
------------ Step          13700 ----- CPU =    0.5613215 (sec) -------------
TotEng   =         7.3076 KinEng   =         7.3076 Temp     =         0.0974 
PotEng   =         0.0000 E_bond   =         0.0000 E_angle  =         0.0000 
E_dihed  =         0.0000 E_impro  =         0.0000 E_vdwl   =         0.0000 
E_coul   =         0.0000 E_long   =         0.0000 Press    =         0.0331
------------ Step          13800 ----- CPU =     0.562384 (sec) -------------
TotEng   =         7.2527 KinEng   =         7.2527 Temp     =         0.0967 
PotEng   =         0.0000 E_bond   =         0.0000 E_angle  =         0.0000 
E_dihed  =         0.0000 E_impro  =         0.0000 E_vdwl   =         0.0000 
E_coul   =         0.0000 E_long   =         0.0000 Press    =         0.0315
------------ Step          13900 ----- CPU =    0.5634712 (sec) -------------
TotEng   =         7.2387 KinEng   =         7.2387 Temp     =         0.0965 
PotEng   =         0.0000 E_bond   =         0.0000 E_angle  =         0.0000 
E_dihed  =         0.0000 E_impro  =         0.0000 E_vdwl   =         0.0000 
E_coul   =         0.0000 E_long   =         0.0000 Press    =         0.0339
------------ Step          14000 ----- CPU =    0.5645634 (sec) -------------
TotEng   =         7.0997 KinEng   =         7.0997 Temp     =         0.0947 
PotEng   =         0.0000 E_bond   =         0.0000 E_angle  =         0.0000 
E_dihed  =         0.0000 E_impro  =         0.0000 E_vdwl   =         0.0000 
E_coul   =         0.0000 E_long   =         0.0000 Press    =         0.0388
------------ Step          14100 ----- CPU =    0.5815505 (sec) -------------
TotEng   =         6.8991 KinEng   =         6.8991 Temp     =         0.0920 
PotEng   =         0.0000 E_bond   =         0.0000 E_angle  =         0.0000 
E_dihed  =         0.0000 E_impro  =         0.0000 E_vdwl   =         0.0000 
E_coul   =         0.0000 E_long   =         0.0000 Press    =         0.0788
------------ Step          14200 ----- CPU =    0.5827617 (sec) -------------
TotEng   =         6.8411 KinEng   =         6.8411 Temp     =         0.0912 
PotEng   =         0.0000 E_bond   =         0.0000 E_angle  =         0.0000 
E_dihed  =         0.0000 E_impro  =         0.0000 E_vdwl   =         0.0000 
E_coul   =         0.0000 E_long   =         0.0000 Press    =         0.0630
------------ Step          14300 ----- CPU =      0.58386 (sec) -------------
TotEng   =         6.6865 KinEng   =         6.6865 Temp     =         0.0892 
PotEng   =         0.0000 E_bond   =         0.0000 E_angle  =         0.0000 
E_dihed  =         0.0000 E_impro  =         0.0000 E_vdwl   =         0.0000 
E_coul   =         0.0000 E_long   =         0.0000 Press    =         0.0659
------------ Step          14400 ----- CPU =    0.5849412 (sec) -------------
TotEng   =         6.6121 KinEng   =         6.6121 Temp     =         0.0882 
PotEng   =         0.0000 E_bond   =         0.0000 E_angle  =         0.0000 
E_dihed  =         0.0000 E_impro  =         0.0000 E_vdwl   =         0.0000 
E_coul   =         0.0000 E_long   =         0.0000 Press    =         0.0502
------------ Step          14500 ----- CPU =    0.5860199 (sec) -------------
TotEng   =         6.5764 KinEng   =         6.5764 Temp     =         0.0877 
PotEng   =         0.0000 E_bond   =         0.0000 E_angle  =         0.0000 
E_dihed  =         0.0000 E_impro  =         0.0000 E_vdwl   =         0.0000 
E_coul   =         0.0000 E_long   =         0.0000 Press    =         0.0325
------------ Step          14600 ----- CPU =    0.5870888 (sec) -------------
TotEng   =         6.4901 KinEng   =         6.4901 Temp     =         0.0865 
PotEng   =         0.0000 E_bond   =         0.0000 E_angle  =         0.0000 
E_dihed  =         0.0000 E_impro  =         0.0000 E_vdwl   =         0.0000 
E_coul   =         0.0000 E_long   =         0.0000 Press    =         0.0539
------------ Step          14700 ----- CPU =    0.5881338 (sec) -------------
TotEng   =         5.9545 KinEng   =         5.9545 Temp     =         0.0794 
PotEng   =         0.0000 E_bond   =         0.0000 E_angle  =         0.0000 
E_dihed  =         0.0000 E_impro  =         0.0000 E_vdwl   =         0.0000 
E_coul   =         0.0000 E_long   =         0.0000 Press    =         0.0809
------------ Step          14800 ----- CPU =      0.58918 (sec) -------------
TotEng   =         6.0404 KinEng   =         6.0404 Temp     =         0.0805 
PotEng   =         0.0000 E_bond   =         0.0000 E_angle  =         0.0000 
E_dihed  =         0.0000 E_impro  =         0.0000 E_vdwl   =         0.0000 
E_coul   =         0.0000 E_long   =         0.0000 Press    =         0.0244
------------ Step          14900 ----- CPU =    0.5902166 (sec) -------------
TotEng   =         6.0033 KinEng   =         6.0033 Temp     =         0.0800 
PotEng   =         0.0000 E_bond   =         0.0000 E_angle  =         0.0000 
E_dihed  =         0.0000 E_impro  =         0.0000 E_vdwl   =         0.0000 
E_coul   =         0.0000 E_long   =         0.0000 Press    =         0.0307
------------ Step          15000 ----- CPU =    0.5912577 (sec) -------------
TotEng   =         5.9961 KinEng   =         5.9961 Temp     =         0.0799 
PotEng   =         0.0000 E_bond   =         0.0000 E_angle  =         0.0000 
E_dihed  =         0.0000 E_impro  =         0.0000 E_vdwl   =         0.0000 
E_coul   =         0.0000 E_long   =         0.0000 Press    =         0.0298
Loop time of 0.605503 on 20 procs for 15000 steps with 76 atoms

Performance: 2140368.272 tau/day, 24772.781 timesteps/s, 1.883 Matom-step/s
95.4% CPU use with 20 MPI tasks x 1 OpenMP threads

MPI task timing breakdown:
Section |  min time  |  avg time  |  max time  |%varavg| %total
---------------------------------------------------------------
Pair    | 0.0013072  | 0.0017943  | 0.0023399  |   0.7 |  0.30
Neigh   | 0.00043319 | 0.00050145 | 0.00062101 |   0.0 |  0.08
Comm    | 0.1291     | 0.13631    | 0.14547    |   1.2 | 22.51
Output  | 0.052353   | 0.1038     | 0.40343    |  23.1 | 17.14
Modify  | 0.0081428  | 0.0091849  | 0.0099758  |   0.5 |  1.52
Other   |            | 0.3539     |            |       | 58.45

Nlocal:            3.8 ave           7 max           1 min
Histogram: 2 1 0 8 0 2 3 0 3 1
Nghost:           26.2 ave          38 max          18 min
Histogram: 2 1 3 2 3 5 3 0 0 1
Neighs:            2.7 ave          10 max           0 min
Histogram: 5 4 3 1 3 1 0 2 0 1

Total # of neighbors = 54
Ave neighs/atom = 0.71052632
Neighbor list builds = 411
Dangerous builds = 0

neigh_modify	exclude group intruder1 intruder2
unfix		12

fix		hxFix intruder1 move linear 0.0 0.9 NULL
unfix		11

run 25000
Generated 0 of 1 mixed pair_coeff terms from geometric mixing rule
Per MPI rank memory allocation (min/avg/max) = 10.58 | 10.58 | 10.58 Mbytes
------------ Step          15000 ----- CPU =            0 (sec) -------------
TotEng   =         5.9961 KinEng   =         5.9961 Temp     =         0.0799 
PotEng   =         0.0000 E_bond   =         0.0000 E_angle  =         0.0000 
E_dihed  =         0.0000 E_impro  =         0.0000 E_vdwl   =         0.0000 
E_coul   =         0.0000 E_long   =         0.0000 Press    =         0.0298
------------ Step          15100 ----- CPU =  0.001017534 (sec) -------------
TotEng   =         6.9697 KinEng   =         6.9697 Temp     =         0.0929 
PotEng   =         0.0000 E_bond   =         0.0000 E_angle  =         0.0000 
E_dihed  =         0.0000 E_impro  =         0.0000 E_vdwl   =         0.0000 
E_coul   =         0.0000 E_long   =         0.0000 Press    =         0.0372
------------ Step          15200 ----- CPU =  0.002115161 (sec) -------------
TotEng   =         6.7014 KinEng   =         6.7014 Temp     =         0.0894 
PotEng   =         0.0000 E_bond   =         0.0000 E_angle  =         0.0000 
E_dihed  =         0.0000 E_impro  =         0.0000 E_vdwl   =         0.0000 
E_coul   =         0.0000 E_long   =         0.0000 Press    =         0.0523
------------ Step          15300 ----- CPU =  0.004015166 (sec) -------------
TotEng   =         6.6603 KinEng   =         6.6603 Temp     =         0.0888 
PotEng   =         0.0000 E_bond   =         0.0000 E_angle  =         0.0000 
E_dihed  =         0.0000 E_impro  =         0.0000 E_vdwl   =         0.0000 
E_coul   =         0.0000 E_long   =         0.0000 Press    =         0.0466
------------ Step          15400 ----- CPU =  0.005106221 (sec) -------------
TotEng   =         6.5167 KinEng   =         6.5167 Temp     =         0.0869 
PotEng   =         0.0000 E_bond   =         0.0000 E_angle  =         0.0000 
E_dihed  =         0.0000 E_impro  =         0.0000 E_vdwl   =         0.0000 
E_coul   =         0.0000 E_long   =         0.0000 Press    =         0.0560
------------ Step          15500 ----- CPU =  0.006159077 (sec) -------------
TotEng   =         6.5291 KinEng   =         6.5291 Temp     =         0.0871 
PotEng   =         0.0000 E_bond   =         0.0000 E_angle  =         0.0000 
E_dihed  =         0.0000 E_impro  =         0.0000 E_vdwl   =         0.0000 
E_coul   =         0.0000 E_long   =         0.0000 Press    =         0.0256
------------ Step          15600 ----- CPU =  0.007241744 (sec) -------------
TotEng   =         6.5038 KinEng   =         6.5038 Temp     =         0.0867 
PotEng   =         0.0000 E_bond   =         0.0000 E_angle  =         0.0000 
E_dihed  =         0.0000 E_impro  =         0.0000 E_vdwl   =         0.0000 
E_coul   =         0.0000 E_long   =         0.0000 Press    =         0.0302
------------ Step          15700 ----- CPU =  0.008367773 (sec) -------------
TotEng   =         6.6555 KinEng   =         6.6555 Temp     =         0.0887 
PotEng   =         0.0000 E_bond   =         0.0000 E_angle  =         0.0000 
E_dihed  =         0.0000 E_impro  =         0.0000 E_vdwl   =         0.0000 
E_coul   =         0.0000 E_long   =         0.0000 Press    =         0.0695
------------ Step          15800 ----- CPU =  0.009482151 (sec) -------------
TotEng   =         7.0651 KinEng   =         7.0651 Temp     =         0.0942 
PotEng   =         0.0000 E_bond   =         0.0000 E_angle  =         0.0000 
E_dihed  =         0.0000 E_impro  =         0.0000 E_vdwl   =         0.0000 
E_coul   =         0.0000 E_long   =         0.0000 Press    =         0.0182
------------ Step          15900 ----- CPU =   0.01058781 (sec) -------------
TotEng   =         7.0212 KinEng   =         7.0212 Temp     =         0.0936 
PotEng   =         0.0000 E_bond   =         0.0000 E_angle  =         0.0000 
E_dihed  =         0.0000 E_impro  =         0.0000 E_vdwl   =         0.0000 
E_coul   =         0.0000 E_long   =         0.0000 Press    =         0.0335
------------ Step          16000 ----- CPU =   0.01169895 (sec) -------------
TotEng   =         6.9588 KinEng   =         6.9588 Temp     =         0.0928 
PotEng   =         0.0000 E_bond   =         0.0000 E_angle  =         0.0000 
E_dihed  =         0.0000 E_impro  =         0.0000 E_vdwl   =         0.0000 
E_coul   =         0.0000 E_long   =         0.0000 Press    =         0.0407
------------ Step          16100 ----- CPU =   0.02785495 (sec) -------------
TotEng   =         6.9392 KinEng   =         6.9392 Temp     =         0.0925 
PotEng   =         0.0000 E_bond   =         0.0000 E_angle  =         0.0000 
E_dihed  =         0.0000 E_impro  =         0.0000 E_vdwl   =         0.0000 
E_coul   =         0.0000 E_long   =         0.0000 Press    =         0.0323
------------ Step          16200 ----- CPU =   0.02912005 (sec) -------------
TotEng   =         7.0250 KinEng   =         7.0250 Temp     =         0.0937 
PotEng   =         0.0000 E_bond   =         0.0000 E_angle  =         0.0000 
E_dihed  =         0.0000 E_impro  =         0.0000 E_vdwl   =         0.0000 
E_coul   =         0.0000 E_long   =         0.0000 Press    =         0.0915
------------ Step          16300 ----- CPU =   0.03024304 (sec) -------------
TotEng   =         7.4641 KinEng   =         7.4641 Temp     =         0.0995 
PotEng   =         0.0000 E_bond   =         0.0000 E_angle  =         0.0000 
E_dihed  =         0.0000 E_impro  =         0.0000 E_vdwl   =         0.0000 
E_coul   =         0.0000 E_long   =         0.0000 Press    =         0.0396
------------ Step          16400 ----- CPU =   0.03138605 (sec) -------------
TotEng   =         7.1849 KinEng   =         7.1849 Temp     =         0.0958 
PotEng   =         0.0000 E_bond   =         0.0000 E_angle  =         0.0000 
E_dihed  =         0.0000 E_impro  =         0.0000 E_vdwl   =         0.0000 
E_coul   =         0.0000 E_long   =         0.0000 Press    =         0.0527
------------ Step          16500 ----- CPU =   0.03251365 (sec) -------------
TotEng   =         6.7850 KinEng   =         6.7850 Temp     =         0.0905 
PotEng   =         0.0000 E_bond   =         0.0000 E_angle  =         0.0000 
E_dihed  =         0.0000 E_impro  =         0.0000 E_vdwl   =         0.0000 
E_coul   =         0.0000 E_long   =         0.0000 Press    =         0.0396
------------ Step          16600 ----- CPU =   0.03362555 (sec) -------------
TotEng   =         6.7412 KinEng   =         6.7412 Temp     =         0.0899 
PotEng   =         0.0000 E_bond   =         0.0000 E_angle  =         0.0000 
E_dihed  =         0.0000 E_impro  =         0.0000 E_vdwl   =         0.0000 
E_coul   =         0.0000 E_long   =         0.0000 Press    =         0.0455
------------ Step          16700 ----- CPU =   0.03472375 (sec) -------------
TotEng   =         7.1103 KinEng   =         7.1103 Temp     =         0.0948 
PotEng   =         0.0000 E_bond   =         0.0000 E_angle  =         0.0000 
E_dihed  =         0.0000 E_impro  =         0.0000 E_vdwl   =         0.0000 
E_coul   =         0.0000 E_long   =         0.0000 Press    =         0.0503
------------ Step          16800 ----- CPU =   0.03582336 (sec) -------------
TotEng   =         7.1720 KinEng   =         7.1720 Temp     =         0.0956 
PotEng   =         0.0000 E_bond   =         0.0000 E_angle  =         0.0000 
E_dihed  =         0.0000 E_impro  =         0.0000 E_vdwl   =         0.0000 
E_coul   =         0.0000 E_long   =         0.0000 Press    =         0.0413
------------ Step          16900 ----- CPU =   0.03695139 (sec) -------------
TotEng   =         6.8707 KinEng   =         6.8707 Temp     =         0.0916 
PotEng   =         0.0000 E_bond   =         0.0000 E_angle  =         0.0000 
E_dihed  =         0.0000 E_impro  =         0.0000 E_vdwl   =         0.0000 
E_coul   =         0.0000 E_long   =         0.0000 Press    =         0.0461
------------ Step          17000 ----- CPU =   0.03808156 (sec) -------------
TotEng   =         6.8933 KinEng   =         6.8933 Temp     =         0.0919 
PotEng   =         0.0000 E_bond   =         0.0000 E_angle  =         0.0000 
E_dihed  =         0.0000 E_impro  =         0.0000 E_vdwl   =         0.0000 
E_coul   =         0.0000 E_long   =         0.0000 Press    =         0.0563
------------ Step          17100 ----- CPU =   0.05577837 (sec) -------------
TotEng   =         7.0212 KinEng   =         7.0212 Temp     =         0.0936 
PotEng   =         0.0000 E_bond   =         0.0000 E_angle  =         0.0000 
E_dihed  =         0.0000 E_impro  =         0.0000 E_vdwl   =         0.0000 
E_coul   =         0.0000 E_long   =         0.0000 Press    =         0.0547
------------ Step          17200 ----- CPU =   0.05698578 (sec) -------------
TotEng   =         7.1099 KinEng   =         7.1099 Temp     =         0.0948 
PotEng   =         0.0000 E_bond   =         0.0000 E_angle  =         0.0000 
E_dihed  =         0.0000 E_impro  =         0.0000 E_vdwl   =         0.0000 
E_coul   =         0.0000 E_long   =         0.0000 Press    =         0.0322
------------ Step          17300 ----- CPU =   0.05829796 (sec) -------------
TotEng   =         6.9533 KinEng   =         6.9533 Temp     =         0.0927 
PotEng   =         0.0000 E_bond   =         0.0000 E_angle  =         0.0000 
E_dihed  =         0.0000 E_impro  =         0.0000 E_vdwl   =         0.0000 
E_coul   =         0.0000 E_long   =         0.0000 Press    =         0.0596
------------ Step          17400 ----- CPU =   0.05944015 (sec) -------------
TotEng   =         6.8444 KinEng   =         6.8444 Temp     =         0.0913 
PotEng   =         0.0000 E_bond   =         0.0000 E_angle  =         0.0000 
E_dihed  =         0.0000 E_impro  =         0.0000 E_vdwl   =         0.0000 
E_coul   =         0.0000 E_long   =         0.0000 Press    =         0.0521
------------ Step          17500 ----- CPU =   0.06126643 (sec) -------------
TotEng   =         6.8106 KinEng   =         6.8106 Temp     =         0.0908 
PotEng   =         0.0000 E_bond   =         0.0000 E_angle  =         0.0000 
E_dihed  =         0.0000 E_impro  =         0.0000 E_vdwl   =         0.0000 
E_coul   =         0.0000 E_long   =         0.0000 Press    =         0.0278
------------ Step          17600 ----- CPU =   0.06248318 (sec) -------------
TotEng   =         6.7449 KinEng   =         6.7449 Temp     =         0.0899 
PotEng   =         0.0000 E_bond   =         0.0000 E_angle  =         0.0000 
E_dihed  =         0.0000 E_impro  =         0.0000 E_vdwl   =         0.0000 
E_coul   =         0.0000 E_long   =         0.0000 Press    =         0.0450
------------ Step          17700 ----- CPU =   0.06424126 (sec) -------------
TotEng   =         6.7270 KinEng   =         6.7270 Temp     =         0.0897 
PotEng   =         0.0000 E_bond   =         0.0000 E_angle  =         0.0000 
E_dihed  =         0.0000 E_impro  =         0.0000 E_vdwl   =         0.0000 
E_coul   =         0.0000 E_long   =         0.0000 Press    =         0.0279
------------ Step          17800 ----- CPU =   0.06556331 (sec) -------------
TotEng   =         6.6883 KinEng   =         6.6883 Temp     =         0.0892 
PotEng   =         0.0000 E_bond   =         0.0000 E_angle  =         0.0000 
E_dihed  =         0.0000 E_impro  =         0.0000 E_vdwl   =         0.0000 
E_coul   =         0.0000 E_long   =         0.0000 Press    =         0.0360
------------ Step          17900 ----- CPU =    0.0666973 (sec) -------------
TotEng   =         6.6613 KinEng   =         6.6613 Temp     =         0.0888 
PotEng   =         0.0000 E_bond   =         0.0000 E_angle  =         0.0000 
E_dihed  =         0.0000 E_impro  =         0.0000 E_vdwl   =         0.0000 
E_coul   =         0.0000 E_long   =         0.0000 Press    =         0.0281
[...]
------------ Step          35300 ----- CPU =     1.143579 (sec) -------------
TotEng   =         5.8915 KinEng   =         5.8915 Temp     =         0.0786 
PotEng   =         0.0000 E_bond   =         0.0000 E_angle  =         0.0000 
E_dihed  =         0.0000 E_impro  =         0.0000 E_vdwl   =         0.0000 
E_coul   =         0.0000 E_long   =         0.0000 Press    =         0.0231
------------ Step          35400 ----- CPU =     1.144715 (sec) -------------
TotEng   =         5.8975 KinEng   =         5.8975 Temp     =         0.0786 
PotEng   =         0.0000 E_bond   =         0.0000 E_angle  =         0.0000 
E_dihed  =         0.0000 E_impro  =         0.0000 E_vdwl   =         0.0000 
E_coul   =         0.0000 E_long   =         0.0000 Press    =         0.0228
------------ Step          35500 ----- CPU =     1.145797 (sec) -------------
TotEng   =         5.9479 KinEng   =         5.9479 Temp     =         0.0793 
PotEng   =         0.0000 E_bond   =         0.0000 E_angle  =         0.0000 
E_dihed  =         0.0000 E_impro  =         0.0000 E_vdwl   =         0.0000 
E_coul   =         0.0000 E_long   =         0.0000 Press    =         0.0549
------------ Step          35600 ----- CPU =     1.146898 (sec) -------------
TotEng   =         6.5129 KinEng   =         6.5129 Temp     =         0.0868 
PotEng   =         0.0000 E_bond   =         0.0000 E_angle  =         0.0000 
E_dihed  =         0.0000 E_impro  =         0.0000 E_vdwl   =         0.0000 
E_coul   =         0.0000 E_long   =         0.0000 Press    =         0.0550
------------ Step          35700 ----- CPU =     1.148011 (sec) -------------
TotEng   =         6.6039 KinEng   =         6.6039 Temp     =         0.0881 
PotEng   =         0.0000 E_bond   =         0.0000 E_angle  =         0.0000 
E_dihed  =         0.0000 E_impro  =         0.0000 E_vdwl   =         0.0000 
E_coul   =         0.0000 E_long   =         0.0000 Press    =         0.0280
------------ Step          35800 ----- CPU =     1.149096 (sec) -------------
TotEng   =         6.4536 KinEng   =         6.4536 Temp     =         0.0860 
PotEng   =         0.0000 E_bond   =         0.0000 E_angle  =         0.0000 
E_dihed  =         0.0000 E_impro  =         0.0000 E_vdwl   =         0.0000 
E_coul   =         0.0000 E_long   =         0.0000 Press    =         0.0322
------------ Step          35900 ----- CPU =     1.150175 (sec) -------------
TotEng   =         6.3572 KinEng   =         6.3572 Temp     =         0.0848 
PotEng   =         0.0000 E_bond   =         0.0000 E_angle  =         0.0000 
E_dihed  =         0.0000 E_impro  =         0.0000 E_vdwl   =         0.0000 
E_coul   =         0.0000 E_long   =         0.0000 Press    =         0.0340
------------ Step          36000 ----- CPU =      1.15128 (sec) -------------
TotEng   =         6.2966 KinEng   =         6.2966 Temp     =         0.0840 
PotEng   =         0.0000 E_bond   =         0.0000 E_angle  =         0.0000 
E_dihed  =         0.0000 E_impro  =         0.0000 E_vdwl   =         0.0000 
E_coul   =         0.0000 E_long   =         0.0000 Press    =         0.0364
------------ Step          36100 ----- CPU =     1.166998 (sec) -------------
TotEng   =         6.2570 KinEng   =         6.2570 Temp     =         0.0834 
PotEng   =         0.0000 E_bond   =         0.0000 E_angle  =         0.0000 
E_dihed  =         0.0000 E_impro  =         0.0000 E_vdwl   =         0.0000 
E_coul   =         0.0000 E_long   =         0.0000 Press    =         0.0275
------------ Step          36200 ----- CPU =     1.168762 (sec) -------------
TotEng   =         6.3330 KinEng   =         6.3330 Temp     =         0.0844 
PotEng   =         0.0000 E_bond   =         0.0000 E_angle  =         0.0000 
E_dihed  =         0.0000 E_impro  =         0.0000 E_vdwl   =         0.0000 
E_coul   =         0.0000 E_long   =         0.0000 Press    =         0.0526
------------ Step          36300 ----- CPU =      1.16996 (sec) -------------
TotEng   =         6.5249 KinEng   =         6.5249 Temp     =         0.0870 
PotEng   =         0.0000 E_bond   =         0.0000 E_angle  =         0.0000 
E_dihed  =         0.0000 E_impro  =         0.0000 E_vdwl   =         0.0000 
E_coul   =         0.0000 E_long   =         0.0000 Press    =         0.0281
------------ Step          36400 ----- CPU =     1.171125 (sec) -------------
TotEng   =         6.4742 KinEng   =         6.4742 Temp     =         0.0863 
PotEng   =         0.0000 E_bond   =         0.0000 E_angle  =         0.0000 
E_dihed  =         0.0000 E_impro  =         0.0000 E_vdwl   =         0.0000 
E_coul   =         0.0000 E_long   =         0.0000 Press    =         0.0512
------------ Step          36500 ----- CPU =     1.172317 (sec) -------------
TotEng   =         6.7873 KinEng   =         6.7873 Temp     =         0.0905 
PotEng   =         0.0000 E_bond   =         0.0000 E_angle  =         0.0000 
E_dihed  =         0.0000 E_impro  =         0.0000 E_vdwl   =         0.0000 
E_coul   =         0.0000 E_long   =         0.0000 Press    =         0.0456
------------ Step          36600 ----- CPU =     1.173457 (sec) -------------
TotEng   =         6.8621 KinEng   =         6.8621 Temp     =         0.0915 
PotEng   =         0.0000 E_bond   =         0.0000 E_angle  =         0.0000 
E_dihed  =         0.0000 E_impro  =         0.0000 E_vdwl   =         0.0000 
E_coul   =         0.0000 E_long   =         0.0000 Press    =         0.0269
------------ Step          36700 ----- CPU =     1.174585 (sec) -------------
TotEng   =         6.8462 KinEng   =         6.8462 Temp     =         0.0913 
PotEng   =         0.0000 E_bond   =         0.0000 E_angle  =         0.0000 
E_dihed  =         0.0000 E_impro  =         0.0000 E_vdwl   =         0.0000 
E_coul   =         0.0000 E_long   =         0.0000 Press    =         0.0327
------------ Step          36800 ----- CPU =     1.175709 (sec) -------------
TotEng   =         6.8305 KinEng   =         6.8305 Temp     =         0.0911 
PotEng   =         0.0000 E_bond   =         0.0000 E_angle  =         0.0000 
E_dihed  =         0.0000 E_impro  =         0.0000 E_vdwl   =         0.0000 
E_coul   =         0.0000 E_long   =         0.0000 Press    =         0.0335
------------ Step          36900 ----- CPU =     1.176832 (sec) -------------
TotEng   =         6.8316 KinEng   =         6.8316 Temp     =         0.0911 
PotEng   =         0.0000 E_bond   =         0.0000 E_angle  =         0.0000 
E_dihed  =         0.0000 E_impro  =         0.0000 E_vdwl   =         0.0000 
E_coul   =         0.0000 E_long   =         0.0000 Press    =         0.0265
------------ Step          37000 ----- CPU =     1.177937 (sec) -------------
TotEng   =         6.8253 KinEng   =         6.8253 Temp     =         0.0910 
PotEng   =         0.0000 E_bond   =         0.0000 E_angle  =         0.0000 
E_dihed  =         0.0000 E_impro  =         0.0000 E_vdwl   =         0.0000 
E_coul   =         0.0000 E_long   =         0.0000 Press    =         0.0300
------------ Step          37100 ----- CPU =     1.193686 (sec) -------------
TotEng   =         6.8181 KinEng   =         6.8181 Temp     =         0.0909 
PotEng   =         0.0000 E_bond   =         0.0000 E_angle  =         0.0000 
E_dihed  =         0.0000 E_impro  =         0.0000 E_vdwl   =         0.0000 
E_coul   =         0.0000 E_long   =         0.0000 Press    =         0.0282
------------ Step          37200 ----- CPU =     1.194952 (sec) -------------
TotEng   =         6.8190 KinEng   =         6.8190 Temp     =         0.0909 
PotEng   =         0.0000 E_bond   =         0.0000 E_angle  =         0.0000 
E_dihed  =         0.0000 E_impro  =         0.0000 E_vdwl   =         0.0000 
E_coul   =         0.0000 E_long   =         0.0000 Press    =         0.0265
------------ Step          37300 ----- CPU =      1.19679 (sec) -------------
TotEng   =         6.8197 KinEng   =         6.8197 Temp     =         0.0909 
PotEng   =         0.0000 E_bond   =         0.0000 E_angle  =         0.0000 
E_dihed  =         0.0000 E_impro  =         0.0000 E_vdwl   =         0.0000 
E_coul   =         0.0000 E_long   =         0.0000 Press    =         0.0265
------------ Step          37400 ----- CPU =     1.197989 (sec) -------------
TotEng   =         6.8178 KinEng   =         6.8178 Temp     =         0.0909 
PotEng   =         0.0000 E_bond   =         0.0000 E_angle  =         0.0000 
E_dihed  =         0.0000 E_impro  =         0.0000 E_vdwl   =         0.0000 
E_coul   =         0.0000 E_long   =         0.0000 Press    =         0.0269
------------ Step          37500 ----- CPU =     1.199269 (sec) -------------
TotEng   =         6.7829 KinEng   =         6.7829 Temp     =         0.0904 
PotEng   =         0.0000 E_bond   =         0.0000 E_angle  =         0.0000 
E_dihed  =         0.0000 E_impro  =         0.0000 E_vdwl   =         0.0000 
E_coul   =         0.0000 E_long   =         0.0000 Press    =         0.0271
------------ Step          37600 ----- CPU =     1.200396 (sec) -------------
TotEng   =         6.7799 KinEng   =         6.7799 Temp     =         0.0904 
PotEng   =         0.0000 E_bond   =         0.0000 E_angle  =         0.0000 
E_dihed  =         0.0000 E_impro  =         0.0000 E_vdwl   =         0.0000 
E_coul   =         0.0000 E_long   =         0.0000 Press    =         0.0299
------------ Step          37700 ----- CPU =       1.2015 (sec) -------------
TotEng   =         6.7660 KinEng   =         6.7660 Temp     =         0.0902 
PotEng   =         0.0000 E_bond   =         0.0000 E_angle  =         0.0000 
E_dihed  =         0.0000 E_impro  =         0.0000 E_vdwl   =         0.0000 
E_coul   =         0.0000 E_long   =         0.0000 Press    =         0.0369
------------ Step          37800 ----- CPU =      1.20267 (sec) -------------
TotEng   =         6.7666 KinEng   =         6.7666 Temp     =         0.0902 
PotEng   =         0.0000 E_bond   =         0.0000 E_angle  =         0.0000 
E_dihed  =         0.0000 E_impro  =         0.0000 E_vdwl   =         0.0000 
E_coul   =         0.0000 E_long   =         0.0000 Press    =         0.0274
------------ Step          37900 ----- CPU =      1.20378 (sec) -------------
TotEng   =         6.6730 KinEng   =         6.6730 Temp     =         0.0890 
PotEng   =         0.0000 E_bond   =         0.0000 E_angle  =         0.0000 
E_dihed  =         0.0000 E_impro  =         0.0000 E_vdwl   =         0.0000 
E_coul   =         0.0000 E_long   =         0.0000 Press    =         0.0367
------------ Step          38000 ----- CPU =     1.204928 (sec) -------------
TotEng   =         6.6839 KinEng   =         6.6839 Temp     =         0.0891 
PotEng   =         0.0000 E_bond   =         0.0000 E_angle  =         0.0000 
E_dihed  =         0.0000 E_impro  =         0.0000 E_vdwl   =         0.0000 
E_coul   =         0.0000 E_long   =         0.0000 Press    =         0.0261
------------ Step          38100 ----- CPU =     1.220459 (sec) -------------
TotEng   =         6.6647 KinEng   =         6.6647 Temp     =         0.0889 
PotEng   =         0.0000 E_bond   =         0.0000 E_angle  =         0.0000 
E_dihed  =         0.0000 E_impro  =         0.0000 E_vdwl   =         0.0000 
E_coul   =         0.0000 E_long   =         0.0000 Press    =         0.0280
------------ Step          38200 ----- CPU =     1.222884 (sec) -------------
TotEng   =         6.6694 KinEng   =         6.6694 Temp     =         0.0889 
PotEng   =         0.0000 E_bond   =         0.0000 E_angle  =         0.0000 
E_dihed  =         0.0000 E_impro  =         0.0000 E_vdwl   =         0.0000 
E_coul   =         0.0000 E_long   =         0.0000 Press    =         0.0257
------------ Step          38300 ----- CPU =     1.225299 (sec) -------------
TotEng   =         6.6700 KinEng   =         6.6700 Temp     =         0.0889 
PotEng   =         0.0000 E_bond   =         0.0000 E_angle  =         0.0000 
E_dihed  =         0.0000 E_impro  =         0.0000 E_vdwl   =         0.0000 
E_coul   =         0.0000 E_long   =         0.0000 Press    =         0.0275
------------ Step          38400 ----- CPU =     1.226424 (sec) -------------
TotEng   =         6.6727 KinEng   =         6.6727 Temp     =         0.0890 
PotEng   =         0.0000 E_bond   =         0.0000 E_angle  =         0.0000 
E_dihed  =         0.0000 E_impro  =         0.0000 E_vdwl   =         0.0000 
E_coul   =         0.0000 E_long   =         0.0000 Press    =         0.0259
------------ Step          38500 ----- CPU =      1.22756 (sec) -------------
TotEng   =         6.6203 KinEng   =         6.6203 Temp     =         0.0883 
PotEng   =         0.0000 E_bond   =         0.0000 E_angle  =         0.0000 
E_dihed  =         0.0000 E_impro  =         0.0000 E_vdwl   =         0.0000 
E_coul   =         0.0000 E_long   =         0.0000 Press    =         0.0408
------------ Step          38600 ----- CPU =     1.229447 (sec) -------------
TotEng   =         6.6145 KinEng   =         6.6145 Temp     =         0.0882 
PotEng   =         0.0000 E_bond   =         0.0000 E_angle  =         0.0000 
E_dihed  =         0.0000 E_impro  =         0.0000 E_vdwl   =         0.0000 
E_coul   =         0.0000 E_long   =         0.0000 Press    =         0.0391
------------ Step          38700 ----- CPU =     1.230616 (sec) -------------
TotEng   =         6.6301 KinEng   =         6.6301 Temp     =         0.0884 
PotEng   =         0.0000 E_bond   =         0.0000 E_angle  =         0.0000 
E_dihed  =         0.0000 E_impro  =         0.0000 E_vdwl   =         0.0000 
E_coul   =         0.0000 E_long   =         0.0000 Press    =         0.0255
------------ Step          38800 ----- CPU =     1.231934 (sec) -------------
TotEng   =         6.6326 KinEng   =         6.6326 Temp     =         0.0884 
PotEng   =         0.0000 E_bond   =         0.0000 E_angle  =         0.0000 
E_dihed  =         0.0000 E_impro  =         0.0000 E_vdwl   =         0.0000 
E_coul   =         0.0000 E_long   =         0.0000 Press    =         0.0249
------------ Step          38900 ----- CPU =     1.233061 (sec) -------------
TotEng   =         6.6341 KinEng   =         6.6341 Temp     =         0.0885 
PotEng   =         0.0000 E_bond   =         0.0000 E_angle  =         0.0000 
E_dihed  =         0.0000 E_impro  =         0.0000 E_vdwl   =         0.0000 
E_coul   =         0.0000 E_long   =         0.0000 Press    =         0.0260
------------ Step          39000 ----- CPU =     1.234221 (sec) -------------
TotEng   =         6.6342 KinEng   =         6.6342 Temp     =         0.0885 
PotEng   =         0.0000 E_bond   =         0.0000 E_angle  =         0.0000 
E_dihed  =         0.0000 E_impro  =         0.0000 E_vdwl   =         0.0000 
E_coul   =         0.0000 E_long   =         0.0000 Press    =         0.0269
------------ Step          39100 ----- CPU =      1.24947 (sec) -------------
TotEng   =         6.6344 KinEng   =         6.6344 Temp     =         0.0885 
PotEng   =         0.0000 E_bond   =         0.0000 E_angle  =         0.0000 
E_dihed  =         0.0000 E_impro  =         0.0000 E_vdwl   =         0.0000 
E_coul   =         0.0000 E_long   =         0.0000 Press    =         0.0257
------------ Step          39200 ----- CPU =     1.250772 (sec) -------------
TotEng   =         6.6345 KinEng   =         6.6345 Temp     =         0.0885 
PotEng   =         0.0000 E_bond   =         0.0000 E_angle  =         0.0000 
E_dihed  =         0.0000 E_impro  =         0.0000 E_vdwl   =         0.0000 
E_coul   =         0.0000 E_long   =         0.0000 Press    =         0.0257
------------ Step          39300 ----- CPU =     1.256967 (sec) -------------
TotEng   =         6.5979 KinEng   =         6.5979 Temp     =         0.0880 
PotEng   =         0.0000 E_bond   =         0.0000 E_angle  =         0.0000 
E_dihed  =         0.0000 E_impro  =         0.0000 E_vdwl   =         0.0000 
E_coul   =         0.0000 E_long   =         0.0000 Press    =         0.0373
------------ Step          39400 ----- CPU =     1.258245 (sec) -------------
TotEng   =         6.4278 KinEng   =         6.4278 Temp     =         0.0857 
PotEng   =         0.0000 E_bond   =         0.0000 E_angle  =         0.0000 
E_dihed  =         0.0000 E_impro  =         0.0000 E_vdwl   =         0.0000 
E_coul   =         0.0000 E_long   =         0.0000 Press    =         0.0465
------------ Step          39500 ----- CPU =     1.259612 (sec) -------------
TotEng   =         6.4336 KinEng   =         6.4336 Temp     =         0.0858 
PotEng   =         0.0000 E_bond   =         0.0000 E_angle  =         0.0000 
E_dihed  =         0.0000 E_impro  =         0.0000 E_vdwl   =         0.0000 
E_coul   =         0.0000 E_long   =         0.0000 Press    =         0.0253
------------ Step          39600 ----- CPU =     1.261197 (sec) -------------
TotEng   =         6.3877 KinEng   =         6.3877 Temp     =         0.0852 
PotEng   =         0.0000 E_bond   =         0.0000 E_angle  =         0.0000 
E_dihed  =         0.0000 E_impro  =         0.0000 E_vdwl   =         0.0000 
E_coul   =         0.0000 E_long   =         0.0000 Press    =         0.0317
------------ Step          39700 ----- CPU =     1.263076 (sec) -------------
TotEng   =         6.3978 KinEng   =         6.3978 Temp     =         0.0853 
PotEng   =         0.0000 E_bond   =         0.0000 E_angle  =         0.0000 
E_dihed  =         0.0000 E_impro  =         0.0000 E_vdwl   =         0.0000 
E_coul   =         0.0000 E_long   =         0.0000 Press    =         0.0249
------------ Step          39800 ----- CPU =     1.264243 (sec) -------------
TotEng   =         6.3970 KinEng   =         6.3970 Temp     =         0.0853 
PotEng   =         0.0000 E_bond   =         0.0000 E_angle  =         0.0000 
E_dihed  =         0.0000 E_impro  =         0.0000 E_vdwl   =         0.0000 
E_coul   =         0.0000 E_long   =         0.0000 Press    =         0.0278
------------ Step          39900 ----- CPU =     1.265537 (sec) -------------
TotEng   =         6.3580 KinEng   =         6.3580 Temp     =         0.0848 
PotEng   =         0.0000 E_bond   =         0.0000 E_angle  =         0.0000 
E_dihed  =         0.0000 E_impro  =         0.0000 E_vdwl   =         0.0000 
E_coul   =         0.0000 E_long   =         0.0000 Press    =         0.0307
------------ Step          40000 ----- CPU =      1.26669 (sec) -------------
TotEng   =         6.3653 KinEng   =         6.3653 Temp     =         0.0849 
PotEng   =         0.0000 E_bond   =         0.0000 E_angle  =         0.0000 
E_dihed  =         0.0000 E_impro  =         0.0000 E_vdwl   =         0.0000 
E_coul   =         0.0000 E_long   =         0.0000 Press    =         0.0268
Loop time of 1.28079 on 20 procs for 25000 steps with 76 atoms

Performance: 1686459.084 tau/day, 19519.202 timesteps/s, 1.483 Matom-step/s
94.6% CPU use with 20 MPI tasks x 1 OpenMP threads

MPI task timing breakdown:
Section |  min time  |  avg time  |  max time  |%varavg| %total
---------------------------------------------------------------
Pair    | 0.001843   | 0.0028996  | 0.0051834  |   1.6 |  0.23
Neigh   | 0.00029976 | 0.00039699 | 0.00053765 |   0.0 |  0.03
Comm    | 0.23631    | 0.52796    | 0.80733    |  25.5 | 41.22
Output  | 0.086586   | 0.15491    | 0.37236    |  17.3 | 12.10
Modify  | 0.0076964  | 0.0096503  | 0.013148   |   1.8 |  0.75
Other   |            | 0.585      |            |       | 45.67

Nlocal:            3.8 ave           9 max           0 min
Histogram: 1 0 4 3 7 3 0 1 0 1
Nghost:           26.2 ave          32 max          19 min
Histogram: 2 1 3 2 1 2 3 0 0 6
Neighs:            2.4 ave           8 max           0 min
Histogram: 3 7 5 1 0 0 1 0 1 2

Total # of neighbors = 48
Ave neighs/atom = 0.63157895
Neighbor list builds = 255
Dangerous builds = 0

Total wall time: 0:00:05
